 vasp.5.4.1 24Jun15 (build Jul  1 2016 12:41:44) complex                         
 executed on           IFC91_ompi date 2017.08.21  11:03:35
 running on   16 total cores
 distrk:  each k-point on   16 cores,    1 groups
 distr:  one band on NCORES_PER_BAND=   4 cores,    4 groups


--------------------------------------------------------------------------------------------------------


 INCAR:
 POTCAR:    PAW_PBE Al 04Jan2001                  

 ----------------------------------------------------------------------------- 
|                                                                             |
|  ADVICE TO THIS USER RUNNING 'VASP/VAMP'   (HEAR YOUR MASTER'S VOICE ...):  |
|                                                                             |
|      You have switched on vdW-DFT.                                          |
|      This routine was written and supplied by Jiri Klimes.                  |
|      We recommed that you carefully read and cite the following             |
|      publication                                                            |
|      J. Klimes, D.R. Bowler, A. Michelides                                  |
|        J. Phys.: Cond Matt. 22 022201 (2010)                                |
|      J. Klimes, D.R. Bowler, A. Michelides                                  |
|        Phys. Rev. B. 83, 195131 (2011)                                      |
|      and references therein.                                                |
|                                                                             |
 ----------------------------------------------------------------------------- 

 POTCAR:    PAW_PBE Al 04Jan2001                  
   VRHFIN =Al: s2p1                                                             
   LEXCH  = PE                                                                  
   EATOM  =    53.5387 eV,    3.9350 Ry                                         
                                                                                
   TITEL  = PAW_PBE Al 04Jan2001                                                
   LULTRA =        F    use ultrasoft PP ?                                      
   IUNSCR =        1    unscreen: 0-lin 1-nonlin 2-no                           
   RPACOR =    1.500    partial core radius                                     
   POMASS =   26.981; ZVAL   =    3.000    mass and valenz                      
   RCORE  =    1.900    outmost cutoff radius                                   
   RWIGS  =    2.650; RWIGS  =    1.402    wigner-seitz radius (au A)           
   ENMAX  =  240.300; ENMIN  =  180.225 eV                                      
   ICORE  =        2    local potential                                         
   LCOR   =        T    correct aug charges                                     
   LPAW   =        T    paw PP                                                  
   EAUG   =  291.052                                                            
   DEXC   =    0.000                                                            
   RMAX   =    1.939    core radius for proj-oper                               
   RAUG   =    1.300    factor for augmentation sphere                          
   RDEP   =    1.966    radius for radial grids                                 
   RDEPT  =    1.856    core radius for aug-charge                              
                                                                                
   Atomic configuration                                                         
    6 entries                                                                   
     n  l   j            E        occ.                                          
     1  0  0.50     -1511.1048   2.0000                                         
     2  0  0.50      -108.1629   2.0000                                         
     2  1  1.50       -69.6402   6.0000                                         
     3  0  0.50        -7.7528   2.0000                                         
     3  1  1.50        -2.7121   1.0000                                         
     3  2  2.50        -2.7212   0.0000                                         
   Description                                                                  
     l       E           TYP  RCUT    TYP  RCUT                                 
     0     -7.7528455     23  1.900                                             
     0     -3.3096929     23  1.900                                             
     1     -2.7120682     23  1.900                                             
     1     13.6058260     23  1.900                                             
     2     -2.7211652      7  1.900                                             
  local pseudopotential read in
  partial core-charges read in
  partial kinetic energy density read in
  atomic valenz-charges read in
  non local Contribution for L=           0  read in
    real space projection operators read in
  non local Contribution for L=           0  read in
    real space projection operators read in
  non local Contribution for L=           1  read in
    real space projection operators read in
  non local Contribution for L=           1  read in
    real space projection operators read in
    PAW grid and wavefunctions read in

   number of l-projection  operators is LMAX  =           4
   number of lm-projection operators is LMMAX =           8


 ----------------------------------------------------------------------------- 
|                                                                             |
|  ADVICE TO THIS USER RUNNING 'VASP/VAMP'   (HEAR YOUR MASTER'S VOICE ...):  |
|                                                                             |
|      You enforced a specific xc-type in the INCAR file,                     |
|      a different type was found on the POTCAR file                          |
|          I HOPE YOU KNOW, WHAT YOU ARE  DOING                               |
|                                                                             |
 ----------------------------------------------------------------------------- 

  PAW_PBE Al 04Jan2001                  :
 energy of atom  1       EATOM=  -53.5387
 kinetic energy error for atom=    0.0003 (will be added to EATOM!!)


 POSCAR: bulk@mp-134                             
  positions in direct lattice
  velocities in cartesian coordinates
 exchange correlation table for  LEXCH =       42
   RHO(1)=    0.500       N(1)  =     2000
   RHO(2)=  100.500       N(2)  =     4000



--------------------------------------------------------------------------------------------------------


 ion  position               nearest neighbor table
   1  0.000  0.000  0.000-

  LATTYP: Found a face centered cubic cell.
 ALAT       =     4.0674111415
  
  Lattice vectors:
  
 A1 = (   2.4907700000,  -0.0000000000,   1.4380470000)
 A2 = (   0.8302570000,   2.3483210000,   1.4380470000)
 A3 = (  -0.0000000000,  -0.0000000000,   2.8760940000)


Analysis of symmetry for initial positions (statically):
=====================================================================
 Subroutine PRICEL returns:
 Original cell was already a primitive cell.
 

 Routine SETGRP: Setting up the symmetry group for a 
 face centered cubic supercell.


 Subroutine GETGRP returns: Found 48 space group operations
 (whereof 48 operations were pure point group operations)
 out of a pool of 48 trial point group operations.


The static configuration has the point symmetry O_h .


Analysis of symmetry for dynamics (positions and initial velocities):
=====================================================================
 Subroutine PRICEL returns:
 Original cell was already a primitive cell.
 

 Routine SETGRP: Setting up the symmetry group for a 
 face centered cubic supercell.


 Subroutine GETGRP returns: Found 48 space group operations
 (whereof 48 operations were pure point group operations)
 out of a pool of 48 trial point group operations.


The dynamic configuration has the point symmetry O_h .


Analysis of magnetic symmetry:
=====================================================================
 Subroutine PRICEL returns:
 Original cell was already a primitive cell.
 

 Subroutine MAGSYM returns: Found 48 space group operations
 (whereof 48 operations were pure point group operations)
 out of a pool of 48 trial space group operations
 (whereof 48 operations were pure point group operations)
 and found also     1 'primitive' translations


The magnetic configuration has the point symmetry O_h .


 KPOINTS: Non SCF run along symmetry lines        
  k-points in reciprocal lattice
Space group operators:
 irot       det(A)        alpha          n_x          n_y          n_z        tau_x        tau_y        tau_z
    1     1.000000     0.000000     1.000000     0.000000     0.000000     0.000000     0.000000     0.000000
    2    -1.000000     0.000000     1.000000     0.000000     0.000000     0.000000     0.000000     0.000000
    3     1.000000   120.000000    -0.471404    -0.333333    -0.816497     0.000000     0.000000     0.000000
    4    -1.000000   120.000000    -0.471404    -0.333333    -0.816497     0.000000     0.000000     0.000000
    5     1.000000   120.000000     0.471405     0.333333     0.816497     0.000000     0.000000     0.000000
    6    -1.000000   120.000000     0.471405     0.333333     0.816497     0.000000     0.000000     0.000000
    7     1.000000    90.000000    -0.816497    -0.577350    -0.000000     0.000000     0.000000     0.000000
    8    -1.000000    90.000000    -0.816497    -0.577350    -0.000000     0.000000     0.000000     0.000000
    9     1.000000   180.000000     0.866025    -0.000000     0.500000     0.000000     0.000000     0.000000
   10    -1.000000   180.000000     0.866025    -0.000000     0.500000     0.000000     0.000000     0.000000
   11     1.000000    90.000000     0.408248    -0.577350     0.707107     0.000000     0.000000     0.000000
   12    -1.000000    90.000000     0.408248    -0.577350     0.707107     0.000000     0.000000     0.000000
   13     1.000000   180.000000     0.816497     0.577350     0.000000     0.000000     0.000000     0.000000
   14    -1.000000   180.000000     0.816497     0.577350     0.000000     0.000000     0.000000     0.000000
   15     1.000000   120.000000     0.942809    -0.333333     0.000000     0.000000     0.000000     0.000000
   16    -1.000000   120.000000     0.942809    -0.333333     0.000000     0.000000     0.000000     0.000000
   17     1.000000   120.000000    -0.000000    -1.000000     0.000000     0.000000     0.000000     0.000000
   18    -1.000000   120.000000    -0.000000    -1.000000     0.000000     0.000000     0.000000     0.000000
   19     1.000000    90.000000     0.816497     0.577350    -0.000000     0.000000     0.000000     0.000000
   20    -1.000000    90.000000     0.816497     0.577350    -0.000000     0.000000     0.000000     0.000000
   21     1.000000    90.000000     0.408248    -0.577350    -0.707107     0.000000     0.000000     0.000000
   22    -1.000000    90.000000     0.408248    -0.577350    -0.707107     0.000000     0.000000     0.000000
   23     1.000000   180.000000     0.288675     0.816497     0.500000     0.000000     0.000000     0.000000
   24    -1.000000   180.000000     0.288675     0.816497     0.500000     0.000000     0.000000     0.000000
   25     1.000000   120.000000     0.000000     1.000000     0.000000     0.000000     0.000000     0.000000
   26    -1.000000   120.000000     0.000000     1.000000     0.000000     0.000000     0.000000     0.000000
   27     1.000000   120.000000     0.471404     0.333333    -0.816497     0.000000     0.000000     0.000000
   28    -1.000000   120.000000     0.471404     0.333333    -0.816497     0.000000     0.000000     0.000000
   29     1.000000   180.000000    -0.408248     0.577350     0.707107     0.000000     0.000000     0.000000
   30    -1.000000   180.000000    -0.408248     0.577350     0.707107     0.000000     0.000000     0.000000
   31     1.000000    90.000000    -0.408248     0.577350    -0.707107     0.000000     0.000000     0.000000
   32    -1.000000    90.000000    -0.408248     0.577350    -0.707107     0.000000     0.000000     0.000000
   33     1.000000   180.000000     0.000000    -0.000000     1.000000     0.000000     0.000000     0.000000
   34    -1.000000   180.000000     0.000000    -0.000000     1.000000     0.000000     0.000000     0.000000
   35     1.000000    90.000000    -0.408248     0.577350     0.707107     0.000000     0.000000     0.000000
   36    -1.000000    90.000000    -0.408248     0.577350     0.707107     0.000000     0.000000     0.000000
   37     1.000000   120.000000    -0.942809     0.333333     0.000000     0.000000     0.000000     0.000000
   38    -1.000000   120.000000    -0.942809     0.333333     0.000000     0.000000     0.000000     0.000000
   39     1.000000   180.000000    -0.408248     0.577350    -0.707107     0.000000     0.000000     0.000000
   40    -1.000000   180.000000    -0.408248     0.577350    -0.707107     0.000000     0.000000     0.000000
   41     1.000000   120.000000    -0.471405    -0.333333     0.816497     0.000000     0.000000     0.000000
   42    -1.000000   120.000000    -0.471405    -0.333333     0.816497     0.000000     0.000000     0.000000
   43     1.000000   180.000000     0.288675     0.816497    -0.500000     0.000000     0.000000     0.000000
   44    -1.000000   180.000000     0.288675     0.816497    -0.500000     0.000000     0.000000     0.000000
   45     1.000000   180.000000     0.577350    -0.816497     0.000000     0.000000     0.000000     0.000000
   46    -1.000000   180.000000     0.577350    -0.816497     0.000000     0.000000     0.000000     0.000000
   47     1.000000   180.000000     0.866025    -0.000000    -0.500000     0.000000     0.000000     0.000000
   48    -1.000000   180.000000     0.866025    -0.000000    -0.500000     0.000000     0.000000     0.000000

 ----------------------------------------------------------------------------- 
|                                                                             |
|           W    W    AA    RRRRR   N    N  II  N    N   GGGG   !!!           |
|           W    W   A  A   R    R  NN   N  II  NN   N  G    G  !!!           |
|           W    W  A    A  R    R  N N  N  II  N N  N  G       !!!           |
|           W WW W  AAAAAA  RRRRR   N  N N  II  N  N N  G  GGG   !            |
|           WW  WW  A    A  R   R   N   NN  II  N   NN  G    G                |
|           W    W  A    A  R    R  N    N  II  N    N   GGGG   !!!           |
|                                                                             |
|      The number of bands has been changed from the values supplied          |
|      in the INCAR file. This is a result of running the parallel version.   |
|      The orbitals not found in the WAVECAR file will be initialized with    |
|      random numbers, which is usually adequate. For correlated              |
|      calculations, however, you should redo the groundstate calculation.    |
|      I found NBANDS    =       18  now  NBANDS  =      20                   |
|                                                                             |
 ----------------------------------------------------------------------------- 



--------------------------------------------------------------------------------------------------------




 Dimension of arrays:
   k-points           NKPTS =      210   k-points in BZ     NKDIM =      210   number of bands    NBANDS=     20
   number of dos      NEDOS =   5000   number of ions     NIONS =      1
   non local maximal  LDIM  =      4   non local SUM 2l+1 LMDIM =      8
   total plane-waves  NPLWV =  13824
   max r-space proj   IRMAX =      1   max aug-charges    IRDMAX=  32178
   dimension x,y,z NGX =    24 NGY =   24 NGZ =   24
   dimension x,y,z NGXF=    48 NGYF=   48 NGZF=   48
   support grid    NGXF=    48 NGYF=   48 NGZF=   48
   ions per type =               1
 NGX,Y,Z   is equivalent  to a cutoff of  13.87, 13.87, 13.87 a.u.
 NGXF,Y,Z  is equivalent  to a cutoff of  27.75, 27.75, 27.75 a.u.


 I would recommend the setting:
   dimension x,y,z NGX =    21 NGY =   21 NGZ =   21
 SYSTEM =  unknown system                          
 POSCAR =  bulk@mp-134                             

 Startparameter for this run:
   NWRITE =      2    write-flag & timer
   PREC   = accura    normal or accurate (medium, high low for compatibility)
   ISTART =      0    job   : 0-new  1-cont  2-samecut
   ICHARG =      2    charge: 1-file 2-atom 10-const
   ISPIN  =      2    spin polarized calculation?
   LNONCOLLINEAR =      F non collinear calculations
   LSORBIT =      F    spin-orbit coupling
   INIWAV =      1    electr: 0-lowe 1-rand  2-diag
   LASPH  =      F    aspherical Exc in radial PAW
   METAGGA=      F    non-selfconsistent MetaGGA calc.

 Electronic Relaxation 1
   ENCUT  =  500.0 eV  36.75 Ry    6.06 a.u.   5.24  5.24  5.24*2*pi/ulx,y,z
   ENINI  =  500.0     initial cutoff
   ENAUG  =  291.1 eV  augmentation charge cutoff
   NELM   =    400;   NELMIN=  2; NELMDL= -5     # of ELM steps 
   EDIFF  = 0.1E-06   stopping-criterion for ELM
   LREAL  =      F    real-space projection
   NLSPLINE    = F    spline interpolate recip. space projectors
   LCOMPAT=      F    compatible to vasp.4.4
   GGA_COMPAT  = T    GGA compatible to vasp.4.4-vasp.4.6
   LMAXPAW     = -100 max onsite density
   LMAXMIX     =    2 max onsite mixed and CHGCAR
   VOSKOWN=      0    Vosko Wilk Nusair interpolation
   ROPT   =    0.00000
 Ionic relaxation
   EDIFFG = 0.1E-05   stopping-criterion for IOM
   NSW    =      0    number of steps for IOM
   NBLOCK =      1;   KBLOCK =      1    inner block; outer block 
   IBRION =     -1    ionic relax: 0-MD 1-quasi-New 2-CG
   NFREE  =      0    steps in history (QN), initial steepest desc. (CG)
   ISIF   =      2    stress and relaxation
   IWAVPR =     10    prediction:  0-non 1-charg 2-wave 3-comb
   ISYM   =      2    0-nonsym 1-usesym 2-fastsym
   LCORR  =      T    Harris-Foulkes like correction to forces

   POTIM  = 0.5000    time-step for ionic-motion
   TEIN   =    0.0    initial temperature
   TEBEG  =    0.0;   TEEND  =   0.0 temperature during run
   SMASS  =  -3.00    Nose mass-parameter (am)
   estimated Nose-frequenzy (Omega)   =  0.10E-29 period in steps =****** mass=  -0.189E-27a.u.
   SCALEE = 1.0000    scale energy and forces
   NPACO  =    256;   APACO  = 16.0  distance and # of slots for P.C.
   PSTRESS=    0.0 pullay stress

  Mass of Ions in am
   POMASS =  26.98
  Ionic Valenz
   ZVAL   =   3.00
  Atomic Wigner-Seitz radii
   RWIGS  =  -1.00
  virtual crystal weights 
   VCA    =   1.00
   NELECT =       3.0000    total number of electrons
   NUPDOWN=      -1.0000    fix difference up-down

 DOS related values:
   EMIN   =  10.00;   EMAX   =-10.00  energy-range for DOS
   EFERMI =   0.00
   ISMEAR =     0;   SIGMA  =   0.20  broadening in eV -4-tet -1-fermi 0-gaus

 Electronic relaxation 2 (details)
   IALGO  =     38    algorithm
   LDIAG  =      T    sub-space diagonalisation (order eigenvalues)
   LSUBROT=      F    optimize rotation matrix (better conditioning)
   TURBO    =      0    0=normal 1=particle mesh
   IRESTART =      0    0=no restart 2=restart with 2 vectors
   NREBOOT  =      0    no. of reboots
   NMIN     =      0    reboot dimension
   EREF     =   0.00    reference energy to select bands
   IMIX   =      4    mixing-type and parameters
     AMIX     =   0.40;   BMIX     =  1.00
     AMIX_MAG =   1.60;   BMIX_MAG =  1.00
     AMIN     =   0.10
     WC   =   100.;   INIMIX=   1;  MIXPRE=   1;  MAXMIX= -45

 Intra band minimization:
   WEIMIN = 0.0000     energy-eigenvalue tresh-hold
   EBREAK =  0.13E-08  absolut break condition
   DEPER  =   0.30     relativ break condition  

   TIME   =   0.40     timestep for ELM

  volume/ion in A,a.u.               =      16.82       113.52
  Fermi-wavevector in a.u.,A,eV,Ry     =   0.921476  1.741336 11.552943  0.849117
  Thomas-Fermi vector in A             =   2.046896

 Write flags
   LWAVE  =      F    write WAVECAR
   LCHARG =      F    write CHGCAR
   LVTOT  =      F    write LOCPOT, total local potential
   LVHAR  =      F    write LOCPOT, Hartree potential only
   LELF   =      F    write electronic localiz. function (ELF)
   LORBIT =     11    0 simple, 1 ext, 2 COOP (PROOUT)


 Dipole corrections
   LMONO  =      F    monopole corrections only (constant potential shift)
   LDIPOL =      F    correct potential (dipole corrections)
   IDIPOL =      0    1-x, 2-y, 3-z, 4-all directions 
   EPSILON=  1.0000000 bulk dielectric constant

 Exchange correlation treatment:
   GGA     =    BO    GGA type
   LEXCH   =    42    internal setting for exchange type
   VOSKOWN=      0    Vosko Wilk Nusair interpolation
   LHFCALC =     F    Hartree Fock is set to
   LHFONE  =     F    Hartree Fock one center treatment
   AEXX    =    0.0000 exact exchange contribution

 vdW DFT:
   LUSE_VDW   =     T    switch on vdW DFT
   Zab_VDW    =-.8491    correlation parameter
   PARAM1     =0.1833
   PARAM2     =0.2200
   PARAM3     =0.0000

 Linear response parameters
   LEPSILON=     F    determine dielectric tensor
   LRPA    =     F    only Hartree local field effects (RPA)
   LNABLA  =     F    use nabla operator in PAW spheres
   LVEL    =     F    velocity operator in full k-point grid
   LINTERFAST=   F  fast interpolation
   KINTER  =     0    interpolate to denser k-point grid
   CSHIFT  =0.1000    complex shift for real part using Kramers Kronig
   OMEGAMAX=  -1.0    maximum frequency
   DEG_THRESHOLD= 0.2000000E-02 threshold for treating states as degnerate
   RTIME   =    0.100 relaxation time in fs

 Orbital magnetization related:
   ORBITALMAG=     F  switch on orbital magnetization
   LCHIMAG   =     F  perturbation theory with respect to B field
   DQ        =  0.001000  dq finite difference perturbation B field



--------------------------------------------------------------------------------------------------------


 Static calculation
 charge density and potential will be updated during run
 spin polarized calculation
 Variant of blocked Davidson
 Davidson routine will perform the subspace rotation
 perform sub-space diagonalisation
    after iterative eigenvector-optimisation
 modified Broyden-mixing scheme, WC =      100.0
 initial mixing is a Kerker type mixing with AMIX =  0.4000 and BMIX =      1.0000
 Hartree-type preconditioning will be used
 using additional bands           18
 reciprocal scheme for non local part
 use partial core corrections
 calculate Harris-corrections to forces   (improved forces if not selfconsistent)
 use gradient corrections 
 use of overlap-Matrix (Vanderbilt PP)
 Gauss-broadening in eV      SIGMA  =   0.20


--------------------------------------------------------------------------------------------------------


  energy-cutoff  :      500.00
  volume of cell :       16.82
      direct lattice vectors                 reciprocal lattice vectors
     2.490770000 -0.000000000  1.438047000     0.401482273 -0.141945444  0.000000000
     0.830257000  2.348321000  1.438047000     0.000000000  0.425836161  0.000000000
    -0.000000000 -0.000000000  2.876094000    -0.200741136 -0.141945359  0.347693782

  length of vectors
     2.876093595  2.876094119  2.876094000     0.425836265  0.425836161  0.425836183



 k-points in units of 2pi/SCALE and weight: Non SCF run along symmetry lines        
   0.00000000  0.00000000  0.00000000       0.005
   0.00323776 -0.00457888  0.00560796       0.005
   0.00647552 -0.00915777  0.01121593       0.005
   0.00971328 -0.01373665  0.01682389       0.005
   0.01295104 -0.01831554  0.02243186       0.005
   0.01618880 -0.02289442  0.02803982       0.005
   0.01942656 -0.02747330  0.03364779       0.005
   0.02266432 -0.03205219  0.03925575       0.005
   0.02590208 -0.03663107  0.04486371       0.005
   0.02913984 -0.04120996  0.05047168       0.005
   0.03237760 -0.04578884  0.05607964       0.005
   0.03561536 -0.05036772  0.06168761       0.005
   0.03885312 -0.05494661  0.06729557       0.005
   0.04209088 -0.05952549  0.07290353       0.005
   0.04532864 -0.06410437  0.07851150       0.005
   0.04856640 -0.06868326  0.08411946       0.005
   0.05180416 -0.07326214  0.08972743       0.005
   0.05504192 -0.07784103  0.09533539       0.005
   0.05827968 -0.08241991  0.10094336       0.005
   0.06151744 -0.08699879  0.10655132       0.005
   0.06475521 -0.09157768  0.11215928       0.005
   0.06799297 -0.09615656  0.11776725       0.005
   0.07123073 -0.10073545  0.12337521       0.005
   0.07446849 -0.10531433  0.12898318       0.005
   0.07770625 -0.10989321  0.13459114       0.005
   0.08094401 -0.11447210  0.14019911       0.005
   0.08418177 -0.11905098  0.14580707       0.005
   0.08741953 -0.12362987  0.15141503       0.005
   0.09065729 -0.12820875  0.15702300       0.005
   0.09389505 -0.13278763  0.16263096       0.005
   0.09713281 -0.13736652  0.16823893       0.005
   0.10037057 -0.14194540  0.17384689       0.005
   0.10037057 -0.14194540  0.17384689       0.005
   0.09723399 -0.13750961  0.17927961       0.005
   0.09409741 -0.13307381  0.18471232       0.005
   0.09096083 -0.12863802  0.19014504       0.005
   0.08782425 -0.12420223  0.19557775       0.005
   0.08468767 -0.11976643  0.20101047       0.005
   0.08155109 -0.11533064  0.20644318       0.005
   0.07841451 -0.11089484  0.21187590       0.005
   0.07527793 -0.10645905  0.21730861       0.005
   0.07214135 -0.10202326  0.22274133       0.005
   0.06900477 -0.09758746  0.22817404       0.005
   0.06586819 -0.09315167  0.23360676       0.005
   0.06273161 -0.08871588  0.23903948       0.005
   0.05959502 -0.08428008  0.24447219       0.005
   0.05645844 -0.07984429  0.24990491       0.005
   0.05332186 -0.07540849  0.25533762       0.005
   0.05018528 -0.07097270  0.26077034       0.005
   0.05018528 -0.07097270  0.26077034       0.005
   0.04562299 -0.06452064  0.26077034       0.005
   0.04106069 -0.05806857  0.26077034       0.005
   0.03649839 -0.05161651  0.26077034       0.005
   0.03193609 -0.04516445  0.26077034       0.005
   0.02737379 -0.03871238  0.26077034       0.005
   0.02281149 -0.03226032  0.26077034       0.005
   0.01824919 -0.02580825  0.26077034       0.005
   0.01368690 -0.01935619  0.26077034       0.005
   0.00912460 -0.01290413  0.26077034       0.005
   0.00456230 -0.00645206  0.26077034       0.005
   0.00000000 -0.00000000  0.26077034       0.005
   0.00000000 -0.00000000  0.26077034       0.005
  -0.00000000 -0.00000000  0.25286821       0.005
   0.00000000  0.00000000  0.24496607       0.005
   0.00000000 -0.00000000  0.23706394       0.005
  -0.00000000 -0.00000000  0.22916181       0.005
   0.00000000 -0.00000000  0.22125968       0.005
   0.00000000 -0.00000000  0.21335755       0.005
   0.00000000  0.00000000  0.20545542       0.005
   0.00000000 -0.00000000  0.19755329       0.005
  -0.00000000 -0.00000000  0.18965115       0.005
   0.00000000  0.00000000  0.18174902       0.005
   0.00000000  0.00000000  0.17384689       0.005
  -0.00000000 -0.00000000  0.16594476       0.005
   0.00000000  0.00000000  0.15804263       0.005
   0.00000000 -0.00000000  0.15014050       0.005
  -0.00000000 -0.00000000  0.14223837       0.005
   0.00000000  0.00000000  0.13433623       0.005
   0.00000000 -0.00000000  0.12643410       0.005
   0.00000000  0.00000000  0.11853197       0.005
   0.00000000 -0.00000000  0.11062984       0.005
  -0.00000000 -0.00000000  0.10272771       0.005
   0.00000000  0.00000000  0.09482558       0.005
   0.00000000  0.00000000  0.08692345       0.005
  -0.00000000 -0.00000000  0.07902131       0.005
   0.00000000  0.00000000  0.07111918       0.005
   0.00000000  0.00000000  0.06321705       0.005
   0.00000000 -0.00000000  0.05531492       0.005
  -0.00000000 -0.00000000  0.04741279       0.005
   0.00000000  0.00000000  0.03951066       0.005
  -0.00000000 -0.00000000  0.03160853       0.005
   0.00000000 -0.00000000  0.02370639       0.005
   0.00000000  0.00000000  0.01580426       0.005
  -0.00000000 -0.00000000  0.00790213       0.005
   0.00000000  0.00000000  0.00000000       0.005
   0.00000000  0.00000000  0.00000000       0.005
   0.00371743  0.00262862  0.00643877       0.005
   0.00743486  0.00525724  0.01287755       0.005
   0.01115229  0.00788585  0.01931632       0.005
   0.01486971  0.01051447  0.02575509       0.005
   0.01858714  0.01314309  0.03219387       0.005
   0.02230457  0.01577171  0.03863264       0.005
   0.02602200  0.01840032  0.04507142       0.005
   0.02973943  0.02102894  0.05151019       0.005
   0.03345686  0.02365756  0.05794896       0.005
   0.03717428  0.02628618  0.06438774       0.005
   0.04089171  0.02891480  0.07082651       0.005
   0.04460914  0.03154341  0.07726528       0.005
   0.04832657  0.03417203  0.08370406       0.005
   0.05204400  0.03680065  0.09014283       0.005
   0.05576143  0.03942927  0.09658161       0.005
   0.05947886  0.04205788  0.10302038       0.005
   0.06319628  0.04468650  0.10945915       0.005
   0.06691371  0.04731512  0.11589793       0.005
   0.07063114  0.04994374  0.12233670       0.005
   0.07434857  0.05257236  0.12877547       0.005
   0.07806600  0.05520097  0.13521425       0.005
   0.08178343  0.05782959  0.14165302       0.005
   0.08550085  0.06045821  0.14809180       0.005
   0.08921828  0.06308683  0.15453057       0.005
   0.09293571  0.06571544  0.16096934       0.005
   0.09665314  0.06834406  0.16740812       0.005
   0.10037057  0.07097268  0.17384689       0.005
   0.10037057  0.07097268  0.17384689       0.005
   0.10169123  0.06350187  0.17613435       0.005
   0.10301190  0.05603106  0.17842181       0.005
   0.10433256  0.04856025  0.18070927       0.005
   0.10565323  0.04108944  0.18299673       0.005
   0.10697389  0.03361863  0.18528419       0.005
   0.10829456  0.02614782  0.18757165       0.005
   0.10961523  0.01867701  0.18985910       0.005
   0.11093589  0.01120620  0.19214656       0.005
   0.11225656  0.00373539  0.19443402       0.005
   0.11357722 -0.00373542  0.19672148       0.005
   0.11489789 -0.01120623  0.19900894       0.005
   0.11621855 -0.01867704  0.20129640       0.005
   0.11753922 -0.02614785  0.20358386       0.005
   0.11885988 -0.03361866  0.20587132       0.005
   0.12018055 -0.04108947  0.20815878       0.005
   0.12150121 -0.04856028  0.21044624       0.005
   0.12282188 -0.05603109  0.21273370       0.005
   0.12414254 -0.06350190  0.21502115       0.005
   0.12546321 -0.07097271  0.21730861       0.005
   0.12546321 -0.07097271  0.21730861       0.005
   0.11861976 -0.07097271  0.22125968       0.005
   0.11177631 -0.07097271  0.22521075       0.005
   0.10493287 -0.07097271  0.22916181       0.005
   0.09808942 -0.07097271  0.23311288       0.005
   0.09124597 -0.07097271  0.23706394       0.005
   0.08440252 -0.07097271  0.24101501       0.005
   0.07755908 -0.07097270  0.24496607       0.005
   0.07071563 -0.07097270  0.24891714       0.005
   0.06387218 -0.07097270  0.25286821       0.005
   0.05702873 -0.07097270  0.25681927       0.005
   0.05018528 -0.07097270  0.26077034       0.005
   0.05018528 -0.07097270  0.26077034       0.005
   0.05246643 -0.06452064  0.25681927       0.005
   0.05474758 -0.05806858  0.25286821       0.005
   0.05702873 -0.05161651  0.24891714       0.005
   0.05930988 -0.04516445  0.24496607       0.005
   0.06159103 -0.03871239  0.24101501       0.005
   0.06387218 -0.03226032  0.23706394       0.005
   0.06615333 -0.02580826  0.23311288       0.005
   0.06843448 -0.01935620  0.22916181       0.005
   0.07071563 -0.01290414  0.22521075       0.005
   0.07299678 -0.00645207  0.22125968       0.005
   0.07527793 -0.00000001  0.21730861       0.005
   0.07755908  0.00645205  0.21335755       0.005
   0.07984022  0.01290411  0.20940648       0.005
   0.08212137  0.01935618  0.20545542       0.005
   0.08440252  0.02580824  0.20150435       0.005
   0.08668367  0.03226030  0.19755329       0.005
   0.08896482  0.03871237  0.19360222       0.005
   0.09124597  0.04516443  0.18965115       0.005
   0.09352712  0.05161649  0.18570009       0.005
   0.09580827  0.05806855  0.18174902       0.005
   0.09808942  0.06452062  0.17779796       0.005
   0.10037057  0.07097268  0.17384689       0.005
   0.10037057  0.07097268  0.17384689       0.005
   0.09508791  0.06723728  0.17842181       0.005
   0.08980525  0.06350187  0.18299673       0.005
   0.08452258  0.05976647  0.18757165       0.005
   0.07923992  0.05603106  0.19214656       0.005
   0.07395726  0.05229566  0.19672148       0.005
   0.06867460  0.04856025  0.20129640       0.005
   0.06339194  0.04482485  0.20587132       0.005
   0.05810928  0.04108945  0.21044624       0.005
   0.05282661  0.03735404  0.21502115       0.005
   0.04754395  0.03361864  0.21959607       0.005
   0.04226129  0.02988323  0.22417099       0.005
   0.03697863  0.02614783  0.22874591       0.005
   0.03169597  0.02241243  0.23332083       0.005
   0.02641331  0.01867702  0.23789575       0.005
   0.02113065  0.01494162  0.24247066       0.005
   0.01584798  0.01120621  0.24704558       0.005
   0.01056532  0.00747081  0.25162050       0.005
   0.00528266  0.00373540  0.25619542       0.005
   0.00000000 -0.00000000  0.26077034       0.005
   0.12546321 -0.07097271  0.21730861       0.005
   0.12318206 -0.07742477  0.21335755       0.005
   0.12090091 -0.08387684  0.20940648       0.005
   0.11861976 -0.09032890  0.20545542       0.005
   0.11633861 -0.09678096  0.20150435       0.005
   0.11405746 -0.10323302  0.19755329       0.005
   0.11177631 -0.10968509  0.19360222       0.005
   0.10949517 -0.11613715  0.18965115       0.005
   0.10721402 -0.12258921  0.18570009       0.005
   0.10493287 -0.12904128  0.18174902       0.005
   0.10265172 -0.13549334  0.17779796       0.005
   0.10037057 -0.14194540  0.17384689       0.005

 k-points in reciprocal lattice and weights: Non SCF run along symmetry lines        
   0.00000000  0.00000000  0.00000000       0.005
   0.01612903  0.00000000  0.01612903       0.005
   0.03225806  0.00000000  0.03225806       0.005
   0.04838710  0.00000000  0.04838710       0.005
   0.06451613  0.00000000  0.06451613       0.005
   0.08064516  0.00000000  0.08064516       0.005
   0.09677419  0.00000000  0.09677419       0.005
   0.11290323  0.00000000  0.11290323       0.005
   0.12903226  0.00000000  0.12903226       0.005
   0.14516129  0.00000000  0.14516129       0.005
   0.16129032  0.00000000  0.16129032       0.005
   0.17741935  0.00000000  0.17741935       0.005
   0.19354839  0.00000000  0.19354839       0.005
   0.20967742  0.00000000  0.20967742       0.005
   0.22580645  0.00000000  0.22580645       0.005
   0.24193548  0.00000000  0.24193548       0.005
   0.25806452  0.00000000  0.25806452       0.005
   0.27419355  0.00000000  0.27419355       0.005
   0.29032258  0.00000000  0.29032258       0.005
   0.30645161  0.00000000  0.30645161       0.005
   0.32258065  0.00000000  0.32258065       0.005
   0.33870968  0.00000000  0.33870968       0.005
   0.35483871  0.00000000  0.35483871       0.005
   0.37096774  0.00000000  0.37096774       0.005
   0.38709677  0.00000000  0.38709677       0.005
   0.40322581  0.00000000  0.40322581       0.005
   0.41935484  0.00000000  0.41935484       0.005
   0.43548387  0.00000000  0.43548387       0.005
   0.45161290  0.00000000  0.45161290       0.005
   0.46774194  0.00000000  0.46774194       0.005
   0.48387097  0.00000000  0.48387097       0.005
   0.50000000  0.00000000  0.50000000       0.005
   0.50000000  0.00000000  0.50000000       0.005
   0.50000000  0.01562500  0.51562500       0.005
   0.50000000  0.03125000  0.53125000       0.005
   0.50000000  0.04687500  0.54687500       0.005
   0.50000000  0.06250000  0.56250000       0.005
   0.50000000  0.07812500  0.57812500       0.005
   0.50000000  0.09375000  0.59375000       0.005
   0.50000000  0.10937500  0.60937500       0.005
   0.50000000  0.12500000  0.62500000       0.005
   0.50000000  0.14062500  0.64062500       0.005
   0.50000000  0.15625000  0.65625000       0.005
   0.50000000  0.17187500  0.67187500       0.005
   0.50000000  0.18750000  0.68750000       0.005
   0.50000000  0.20312500  0.70312500       0.005
   0.50000000  0.21875000  0.71875000       0.005
   0.50000000  0.23437500  0.73437500       0.005
   0.50000000  0.25000000  0.75000000       0.005
   0.50000000  0.25000000  0.75000000       0.005
   0.48863636  0.26136364  0.75000000       0.005
   0.47727273  0.27272727  0.75000000       0.005
   0.46590909  0.28409091  0.75000000       0.005
   0.45454545  0.29545455  0.75000000       0.005
   0.44318182  0.30681818  0.75000000       0.005
   0.43181818  0.31818182  0.75000000       0.005
   0.42045455  0.32954545  0.75000000       0.005
   0.40909091  0.34090909  0.75000000       0.005
   0.39772727  0.35227273  0.75000000       0.005
   0.38636364  0.36363636  0.75000000       0.005
   0.37500000  0.37500000  0.75000000       0.005
   0.37500000  0.37500000  0.75000000       0.005
   0.36363636  0.36363636  0.72727273       0.005
   0.35227273  0.35227273  0.70454545       0.005
   0.34090909  0.34090909  0.68181818       0.005
   0.32954545  0.32954545  0.65909091       0.005
   0.31818182  0.31818182  0.63636364       0.005
   0.30681818  0.30681818  0.61363636       0.005
   0.29545455  0.29545455  0.59090909       0.005
   0.28409091  0.28409091  0.56818182       0.005
   0.27272727  0.27272727  0.54545455       0.005
   0.26136364  0.26136364  0.52272727       0.005
   0.25000000  0.25000000  0.50000000       0.005
   0.23863636  0.23863636  0.47727273       0.005
   0.22727273  0.22727273  0.45454545       0.005
   0.21590909  0.21590909  0.43181818       0.005
   0.20454545  0.20454545  0.40909091       0.005
   0.19318182  0.19318182  0.38636364       0.005
   0.18181818  0.18181818  0.36363636       0.005
   0.17045455  0.17045455  0.34090909       0.005
   0.15909091  0.15909091  0.31818182       0.005
   0.14772727  0.14772727  0.29545455       0.005
   0.13636364  0.13636364  0.27272727       0.005
   0.12500000  0.12500000  0.25000000       0.005
   0.11363636  0.11363636  0.22727273       0.005
   0.10227273  0.10227273  0.20454545       0.005
   0.09090909  0.09090909  0.18181818       0.005
   0.07954545  0.07954545  0.15909091       0.005
   0.06818182  0.06818182  0.13636364       0.005
   0.05681818  0.05681818  0.11363636       0.005
   0.04545455  0.04545455  0.09090909       0.005
   0.03409091  0.03409091  0.06818182       0.005
   0.02272727  0.02272727  0.04545455       0.005
   0.01136364  0.01136364  0.02272727       0.005
   0.00000000  0.00000000  0.00000000       0.005
   0.00000000  0.00000000  0.00000000       0.005
   0.01851852  0.01851852  0.01851852       0.005
   0.03703704  0.03703704  0.03703704       0.005
   0.05555556  0.05555556  0.05555556       0.005
   0.07407407  0.07407407  0.07407407       0.005
   0.09259259  0.09259259  0.09259259       0.005
   0.11111111  0.11111111  0.11111111       0.005
   0.12962963  0.12962963  0.12962963       0.005
   0.14814815  0.14814815  0.14814815       0.005
   0.16666667  0.16666667  0.16666667       0.005
   0.18518519  0.18518519  0.18518519       0.005
   0.20370370  0.20370370  0.20370370       0.005
   0.22222222  0.22222222  0.22222222       0.005
   0.24074074  0.24074074  0.24074074       0.005
   0.25925926  0.25925926  0.25925926       0.005
   0.27777778  0.27777778  0.27777778       0.005
   0.29629630  0.29629630  0.29629630       0.005
   0.31481481  0.31481481  0.31481481       0.005
   0.33333333  0.33333333  0.33333333       0.005
   0.35185185  0.35185185  0.35185185       0.005
   0.37037037  0.37037037  0.37037037       0.005
   0.38888889  0.38888889  0.38888889       0.005
   0.40740741  0.40740741  0.40740741       0.005
   0.42592593  0.42592593  0.42592593       0.005
   0.44444444  0.44444444  0.44444444       0.005
   0.46296296  0.46296296  0.46296296       0.005
   0.48148148  0.48148148  0.48148148       0.005
   0.50000000  0.50000000  0.50000000       0.005
   0.50000000  0.50000000  0.50000000       0.005
   0.50657895  0.48684211  0.50657895       0.005
   0.51315789  0.47368421  0.51315789       0.005
   0.51973684  0.46052632  0.51973684       0.005
   0.52631579  0.44736842  0.52631579       0.005
   0.53289474  0.43421053  0.53289474       0.005
   0.53947368  0.42105263  0.53947368       0.005
   0.54605263  0.40789474  0.54605263       0.005
   0.55263158  0.39473684  0.55263158       0.005
   0.55921053  0.38157895  0.55921053       0.005
   0.56578947  0.36842105  0.56578947       0.005
   0.57236842  0.35526316  0.57236842       0.005
   0.57894737  0.34210526  0.57894737       0.005
   0.58552632  0.32894737  0.58552632       0.005
   0.59210526  0.31578947  0.59210526       0.005
   0.59868421  0.30263158  0.59868421       0.005
   0.60526316  0.28947368  0.60526316       0.005
   0.61184211  0.27631579  0.61184211       0.005
   0.61842105  0.26315789  0.61842105       0.005
   0.62500000  0.25000000  0.62500000       0.005
   0.62500000  0.25000000  0.62500000       0.005
   0.61363636  0.25000000  0.63636364       0.005
   0.60227273  0.25000000  0.64772727       0.005
   0.59090909  0.25000000  0.65909091       0.005
   0.57954545  0.25000000  0.67045455       0.005
   0.56818182  0.25000000  0.68181818       0.005
   0.55681818  0.25000000  0.69318182       0.005
   0.54545455  0.25000000  0.70454545       0.005
   0.53409091  0.25000000  0.71590909       0.005
   0.52272727  0.25000000  0.72727273       0.005
   0.51136364  0.25000000  0.73863636       0.005
   0.50000000  0.25000000  0.75000000       0.005
   0.50000000  0.25000000  0.75000000       0.005
   0.50000000  0.26136364  0.73863636       0.005
   0.50000000  0.27272727  0.72727273       0.005
   0.50000000  0.28409091  0.71590909       0.005
   0.50000000  0.29545455  0.70454545       0.005
   0.50000000  0.30681818  0.69318182       0.005
   0.50000000  0.31818182  0.68181818       0.005
   0.50000000  0.32954545  0.67045455       0.005
   0.50000000  0.34090909  0.65909091       0.005
   0.50000000  0.35227273  0.64772727       0.005
   0.50000000  0.36363636  0.63636364       0.005
   0.50000000  0.37500000  0.62500000       0.005
   0.50000000  0.38636364  0.61363636       0.005
   0.50000000  0.39772727  0.60227273       0.005
   0.50000000  0.40909091  0.59090909       0.005
   0.50000000  0.42045455  0.57954545       0.005
   0.50000000  0.43181818  0.56818182       0.005
   0.50000000  0.44318182  0.55681818       0.005
   0.50000000  0.45454545  0.54545455       0.005
   0.50000000  0.46590909  0.53409091       0.005
   0.50000000  0.47727273  0.52272727       0.005
   0.50000000  0.48863636  0.51136364       0.005
   0.50000000  0.50000000  0.50000000       0.005
   0.50000000  0.50000000  0.50000000       0.005
   0.49342105  0.49342105  0.51315789       0.005
   0.48684211  0.48684211  0.52631579       0.005
   0.48026316  0.48026316  0.53947368       0.005
   0.47368421  0.47368421  0.55263158       0.005
   0.46710526  0.46710526  0.56578947       0.005
   0.46052632  0.46052632  0.57894737       0.005
   0.45394737  0.45394737  0.59210526       0.005
   0.44736842  0.44736842  0.60526316       0.005
   0.44078947  0.44078947  0.61842105       0.005
   0.43421053  0.43421053  0.63157895       0.005
   0.42763158  0.42763158  0.64473684       0.005
   0.42105263  0.42105263  0.65789474       0.005
   0.41447368  0.41447368  0.67105263       0.005
   0.40789474  0.40789474  0.68421053       0.005
   0.40131579  0.40131579  0.69736842       0.005
   0.39473684  0.39473684  0.71052632       0.005
   0.38815789  0.38815789  0.72368421       0.005
   0.38157895  0.38157895  0.73684211       0.005
   0.37500000  0.37500000  0.75000000       0.005
   0.62500000  0.25000000  0.62500000       0.005
   0.61363636  0.22727273  0.61363636       0.005
   0.60227273  0.20454545  0.60227273       0.005
   0.59090909  0.18181818  0.59090909       0.005
   0.57954545  0.15909091  0.57954545       0.005
   0.56818182  0.13636364  0.56818182       0.005
   0.55681818  0.11363636  0.55681818       0.005
   0.54545455  0.09090909  0.54545455       0.005
   0.53409091  0.06818182  0.53409091       0.005
   0.52272727  0.04545455  0.52272727       0.005
   0.51136364  0.02272727  0.51136364       0.005
   0.50000000  0.00000000  0.50000000       0.005

 position of ions in fractional coordinates (direct lattice) 
   0.00000000  0.00000000  0.00000000

 position of ions in cartesian coordinates  (Angst):
   0.00000000  0.00000000  0.00000000



--------------------------------------------------------------------------------------------------------


 k-point  1 :   0.0000 0.0000 0.0000  plane waves:     411
 k-point  2 :   0.0161 0.0000 0.0161  plane waves:     411
 k-point  3 :   0.0323 0.0000 0.0323  plane waves:     411
 k-point  4 :   0.0484 0.0000 0.0484  plane waves:     419
 k-point  5 :   0.0645 0.0000 0.0645  plane waves:     427
 k-point  6 :   0.0806 0.0000 0.0806  plane waves:     427
 k-point  7 :   0.0968 0.0000 0.0968  plane waves:     427
 k-point  8 :   0.1129 0.0000 0.1129  plane waves:     427
 k-point  9 :   0.1290 0.0000 0.1290  plane waves:     423
 k-point 10 :   0.1452 0.0000 0.1452  plane waves:     427
 k-point 11 :   0.1613 0.0000 0.1613  plane waves:     435
 k-point 12 :   0.1774 0.0000 0.1774  plane waves:     435
 k-point 13 :   0.1935 0.0000 0.1935  plane waves:     423
 k-point 14 :   0.2097 0.0000 0.2097  plane waves:     431
 k-point 15 :   0.2258 0.0000 0.2258  plane waves:     431
 k-point 16 :   0.2419 0.0000 0.2419  plane waves:     431
 k-point 17 :   0.2581 0.0000 0.2581  plane waves:     431
 k-point 18 :   0.2742 0.0000 0.2742  plane waves:     431
 k-point 19 :   0.2903 0.0000 0.2903  plane waves:     431
 k-point 20 :   0.3065 0.0000 0.3065  plane waves:     432
 k-point 21 :   0.3226 0.0000 0.3226  plane waves:     432
 k-point 22 :   0.3387 0.0000 0.3387  plane waves:     432
 k-point 23 :   0.3548 0.0000 0.3548  plane waves:     432
 k-point 24 :   0.3710 0.0000 0.3710  plane waves:     432
 k-point 25 :   0.3871 0.0000 0.3871  plane waves:     444
 k-point 26 :   0.4032 0.0000 0.4032  plane waves:     440
 k-point 27 :   0.4194 0.0000 0.4194  plane waves:     440
 k-point 28 :   0.4355 0.0000 0.4355  plane waves:     440
 k-point 29 :   0.4516 0.0000 0.4516  plane waves:     440
 k-point 30 :   0.4677 0.0000 0.4677  plane waves:     444
 k-point 31 :   0.4839 0.0000 0.4839  plane waves:     444
 k-point 32 :   0.5000 0.0000 0.5000  plane waves:     444
 k-point 33 :   0.5000 0.0000 0.5000  plane waves:     444
 k-point 34 :   0.5000 0.0156 0.5156  plane waves:     444
 k-point 35 :   0.5000 0.0313 0.5313  plane waves:     444
 k-point 36 :   0.5000 0.0469 0.5469  plane waves:     440
 k-point 37 :   0.5000 0.0625 0.5625  plane waves:     436
 k-point 38 :   0.5000 0.0781 0.5781  plane waves:     436
 k-point 39 :   0.5000 0.0938 0.5938  plane waves:     428
 k-point 40 :   0.5000 0.1094 0.6094  plane waves:     430
 k-point 41 :   0.5000 0.1250 0.6250  plane waves:     426
 k-point 42 :   0.5000 0.1406 0.6406  plane waves:     430
 k-point 43 :   0.5000 0.1563 0.6563  plane waves:     430
 k-point 44 :   0.5000 0.1719 0.6719  plane waves:     430
 k-point 45 :   0.5000 0.1875 0.6875  plane waves:     428
 k-point 46 :   0.5000 0.2031 0.7031  plane waves:     428
 k-point 47 :   0.5000 0.2188 0.7188  plane waves:     424
 k-point 48 :   0.5000 0.2344 0.7344  plane waves:     422
 k-point 49 :   0.5000 0.2500 0.7500  plane waves:     412
 k-point 50 :   0.5000 0.2500 0.7500  plane waves:     412
 k-point 51 :   0.4886 0.2614 0.7500  plane waves:     419
 k-point 52 :   0.4773 0.2727 0.7500  plane waves:     422
 k-point 53 :   0.4659 0.2841 0.7500  plane waves:     426
 k-point 54 :   0.4545 0.2955 0.7500  plane waves:     426
 k-point 55 :   0.4432 0.3068 0.7500  plane waves:     428
 k-point 56 :   0.4318 0.3182 0.7500  plane waves:     425
 k-point 57 :   0.4205 0.3295 0.7500  plane waves:     425
 k-point 58 :   0.4091 0.3409 0.7500  plane waves:     428
 k-point 59 :   0.3977 0.3523 0.7500  plane waves:     427
 k-point 60 :   0.3864 0.3636 0.7500  plane waves:     431
 k-point 61 :   0.3750 0.3750 0.7500  plane waves:     431
 k-point 62 :   0.3750 0.3750 0.7500  plane waves:     431
 k-point 63 :   0.3636 0.3636 0.7273  plane waves:     433
 k-point 64 :   0.3523 0.3523 0.7045  plane waves:     433
 k-point 65 :   0.3409 0.3409 0.6818  plane waves:     431
 k-point 66 :   0.3295 0.3295 0.6591  plane waves:     431
 k-point 67 :   0.3182 0.3182 0.6364  plane waves:     431
 k-point 68 :   0.3068 0.3068 0.6136  plane waves:     431
 k-point 69 :   0.2955 0.2955 0.5909  plane waves:     429
 k-point 70 :   0.2841 0.2841 0.5682  plane waves:     423
 k-point 71 :   0.2727 0.2727 0.5455  plane waves:     423
 k-point 72 :   0.2614 0.2614 0.5227  plane waves:     423
 k-point 73 :   0.2500 0.2500 0.5000  plane waves:     423
 k-point 74 :   0.2386 0.2386 0.4773  plane waves:     423
 k-point 75 :   0.2273 0.2273 0.4545  plane waves:     423
 k-point 76 :   0.2159 0.2159 0.4318  plane waves:     427
 k-point 77 :   0.2045 0.2045 0.4091  plane waves:     429
 k-point 78 :   0.1932 0.1932 0.3864  plane waves:     429
 k-point 79 :   0.1818 0.1818 0.3636  plane waves:     429
 k-point 80 :   0.1705 0.1705 0.3409  plane waves:     429
 k-point 81 :   0.1591 0.1591 0.3182  plane waves:     429
 k-point 82 :   0.1477 0.1477 0.2955  plane waves:     437
 k-point 83 :   0.1364 0.1364 0.2727  plane waves:     429
 k-point 84 :   0.1250 0.1250 0.2500  plane waves:     421
 k-point 85 :   0.1136 0.1136 0.2273  plane waves:     429
 k-point 86 :   0.1023 0.1023 0.2045  plane waves:     429
 k-point 87 :   0.0909 0.0909 0.1818  plane waves:     425
 k-point 88 :   0.0795 0.0795 0.1591  plane waves:     425
 k-point 89 :   0.0682 0.0682 0.1364  plane waves:     427
 k-point 90 :   0.0568 0.0568 0.1136  plane waves:     423
 k-point 91 :   0.0455 0.0455 0.0909  plane waves:     423
 k-point 92 :   0.0341 0.0341 0.0682  plane waves:     419
 k-point 93 :   0.0227 0.0227 0.0455  plane waves:     411
 k-point 94 :   0.0114 0.0114 0.0227  plane waves:     411
 k-point 95 :   0.0000 0.0000 0.0000  plane waves:     411
 k-point 96 :   0.0000 0.0000 0.0000  plane waves:     411
 k-point 97 :   0.0185 0.0185 0.0185  plane waves:     411
 k-point 98 :   0.0370 0.0370 0.0370  plane waves:     411
 k-point 99 :   0.0556 0.0556 0.0556  plane waves:     417
 k-point ** :   0.0741 0.0741 0.0741  plane waves:     423
 k-point ** :   0.0926 0.0926 0.0926  plane waves:     423
 k-point ** :   0.1111 0.1111 0.1111  plane waves:     423
 k-point ** :   0.1296 0.1296 0.1296  plane waves:     423
 k-point ** :   0.1481 0.1481 0.1481  plane waves:     423
 k-point ** :   0.1667 0.1667 0.1667  plane waves:     426
 k-point ** :   0.1852 0.1852 0.1852  plane waves:     423
 k-point ** :   0.2037 0.2037 0.2037  plane waves:     429
 k-point ** :   0.2222 0.2222 0.2222  plane waves:     423
 k-point ** :   0.2407 0.2407 0.2407  plane waves:     429
 k-point ** :   0.2593 0.2593 0.2593  plane waves:     429
 k-point ** :   0.2778 0.2778 0.2778  plane waves:     423
 k-point ** :   0.2963 0.2963 0.2963  plane waves:     422
 k-point ** :   0.3148 0.3148 0.3148  plane waves:     425
 k-point ** :   0.3333 0.3333 0.3333  plane waves:     425
 k-point ** :   0.3519 0.3519 0.3519  plane waves:     425
 k-point ** :   0.3704 0.3704 0.3704  plane waves:     422
 k-point ** :   0.3889 0.3889 0.3889  plane waves:     422
 k-point ** :   0.4074 0.4074 0.4074  plane waves:     422
 k-point ** :   0.4259 0.4259 0.4259  plane waves:     422
 k-point ** :   0.4444 0.4444 0.4444  plane waves:     422
 k-point ** :   0.4630 0.4630 0.4630  plane waves:     422
 k-point ** :   0.4815 0.4815 0.4815  plane waves:     428
 k-point ** :   0.5000 0.5000 0.5000  plane waves:     434
 k-point ** :   0.5000 0.5000 0.5000  plane waves:     434
 k-point ** :   0.5066 0.4868 0.5066  plane waves:     430
 k-point ** :   0.5132 0.4737 0.5132  plane waves:     429
 k-point ** :   0.5197 0.4605 0.5197  plane waves:     426
 k-point ** :   0.5263 0.4474 0.5263  plane waves:     430
 k-point ** :   0.5329 0.4342 0.5329  plane waves:     427
 k-point ** :   0.5395 0.4211 0.5395  plane waves:     426
 k-point ** :   0.5461 0.4079 0.5461  plane waves:     426
 k-point ** :   0.5526 0.3947 0.5526  plane waves:     426
 k-point ** :   0.5592 0.3816 0.5592  plane waves:     428
 k-point ** :   0.5658 0.3684 0.5658  plane waves:     426
 k-point ** :   0.5724 0.3553 0.5724  plane waves:     426
 k-point ** :   0.5789 0.3421 0.5789  plane waves:     424
 k-point ** :   0.5855 0.3289 0.5855  plane waves:     424
 k-point ** :   0.5921 0.3158 0.5921  plane waves:     424
 k-point ** :   0.5987 0.3026 0.5987  plane waves:     426
 k-point ** :   0.6053 0.2895 0.6053  plane waves:     428
 k-point ** :   0.6118 0.2763 0.6118  plane waves:     428
 k-point ** :   0.6184 0.2632 0.6184  plane waves:     432
 k-point ** :   0.6250 0.2500 0.6250  plane waves:     431
 k-point ** :   0.6250 0.2500 0.6250  plane waves:     431
 k-point ** :   0.6136 0.2500 0.6364  plane waves:     431
 k-point ** :   0.6023 0.2500 0.6477  plane waves:     427
 k-point ** :   0.5909 0.2500 0.6591  plane waves:     428
 k-point ** :   0.5795 0.2500 0.6705  plane waves:     425
 k-point ** :   0.5682 0.2500 0.6818  plane waves:     425
 k-point ** :   0.5568 0.2500 0.6932  plane waves:     428
 k-point ** :   0.5455 0.2500 0.7045  plane waves:     426
 k-point ** :   0.5341 0.2500 0.7159  plane waves:     426
 k-point ** :   0.5227 0.2500 0.7273  plane waves:     422
 k-point ** :   0.5114 0.2500 0.7386  plane waves:     419
 k-point ** :   0.5000 0.2500 0.7500  plane waves:     412
 k-point ** :   0.5000 0.2500 0.7500  plane waves:     412
 k-point ** :   0.5000 0.2614 0.7386  plane waves:     418
 k-point ** :   0.5000 0.2727 0.7273  plane waves:     424
 k-point ** :   0.5000 0.2841 0.7159  plane waves:     424
 k-point ** :   0.5000 0.2955 0.7045  plane waves:     424
 k-point ** :   0.5000 0.3068 0.6932  plane waves:     420
 k-point ** :   0.5000 0.3182 0.6818  plane waves:     422
 k-point ** :   0.5000 0.3295 0.6705  plane waves:     426
 k-point ** :   0.5000 0.3409 0.6591  plane waves:     426
 k-point ** :   0.5000 0.3523 0.6477  plane waves:     424
 k-point ** :   0.5000 0.3636 0.6364  plane waves:     424
 k-point ** :   0.5000 0.3750 0.6250  plane waves:     428
 k-point ** :   0.5000 0.3864 0.6136  plane waves:     426
 k-point ** :   0.5000 0.3977 0.6023  plane waves:     428
 k-point ** :   0.5000 0.4091 0.5909  plane waves:     428
 k-point ** :   0.5000 0.4205 0.5795  plane waves:     430
 k-point ** :   0.5000 0.4318 0.5682  plane waves:     432
 k-point ** :   0.5000 0.4432 0.5568  plane waves:     432
 k-point ** :   0.5000 0.4545 0.5455  plane waves:     428
 k-point ** :   0.5000 0.4659 0.5341  plane waves:     424
 k-point ** :   0.5000 0.4773 0.5227  plane waves:     426
 k-point ** :   0.5000 0.4886 0.5114  plane waves:     430
 k-point ** :   0.5000 0.5000 0.5000  plane waves:     434
 k-point ** :   0.5000 0.5000 0.5000  plane waves:     434
 k-point ** :   0.4934 0.4934 0.5132  plane waves:     430
 k-point ** :   0.4868 0.4868 0.5263  plane waves:     429
 k-point ** :   0.4803 0.4803 0.5395  plane waves:     426
 k-point ** :   0.4737 0.4737 0.5526  plane waves:     430
 k-point ** :   0.4671 0.4671 0.5658  plane waves:     427
 k-point ** :   0.4605 0.4605 0.5789  plane waves:     426
 k-point ** :   0.4539 0.4539 0.5921  plane waves:     426
 k-point ** :   0.4474 0.4474 0.6053  plane waves:     426
 k-point ** :   0.4408 0.4408 0.6184  plane waves:     428
 k-point ** :   0.4342 0.4342 0.6316  plane waves:     426
 k-point ** :   0.4276 0.4276 0.6447  plane waves:     426
 k-point ** :   0.4211 0.4211 0.6579  plane waves:     424
 k-point ** :   0.4145 0.4145 0.6711  plane waves:     424
 k-point ** :   0.4079 0.4079 0.6842  plane waves:     424
 k-point ** :   0.4013 0.4013 0.6974  plane waves:     426
 k-point ** :   0.3947 0.3947 0.7105  plane waves:     428
 k-point ** :   0.3882 0.3882 0.7237  plane waves:     428
 k-point ** :   0.3816 0.3816 0.7368  plane waves:     432
 k-point ** :   0.3750 0.3750 0.7500  plane waves:     431
 k-point ** :   0.6250 0.2500 0.6250  plane waves:     431
 k-point ** :   0.6136 0.2273 0.6136  plane waves:     432
 k-point ** :   0.6023 0.2045 0.6023  plane waves:     432
 k-point ** :   0.5909 0.1818 0.5909  plane waves:     432
 k-point ** :   0.5795 0.1591 0.5795  plane waves:     432
 k-point ** :   0.5682 0.1364 0.5682  plane waves:     430
 k-point ** :   0.5568 0.1136 0.5568  plane waves:     428
 k-point ** :   0.5455 0.0909 0.5455  plane waves:     432
 k-point ** :   0.5341 0.0682 0.5341  plane waves:     438
 k-point ** :   0.5227 0.0455 0.5227  plane waves:     444
 k-point ** :   0.5114 0.0227 0.5114  plane waves:     444
 k-point ** :   0.5000 0.0000 0.5000  plane waves:     444

 maximum and minimum number of plane-waves per node :       119       94

 maximum number of plane-waves:       444
 maximum index in each direction: 
   IXMAX=    5   IYMAX=    5   IZMAX=    5
   IXMIN=   -5   IYMIN=   -5   IZMIN=   -5

 NGX is ok and might be reduce to  22
 NGY is ok and might be reduce to  22
 NGZ is ok and might be reduce to  22

 parallel 3D FFT for wavefunctions:
    minimum data exchange during FFTs selected (reduces bandwidth)
 parallel 3D FFT for charge:
    minimum data exchange during FFTs selected (reduces bandwidth)


 total amount of memory used by VASP on root node    37058. kBytes
========================================================================

   base      :      30000. kBytes
   nonl-proj :       1614. kBytes
   fftplans  :        344. kBytes
   grid      :        794. kBytes
   one-center:          6. kBytes
   wavefun   :       4300. kBytes

     INWAV:  cpu time    0.0000: real time    0.0001
 Broyden mixing: mesh for mixing (old mesh)
   NGX = 11   NGY = 11   NGZ = 11
  (NGX  = 48   NGY  = 48   NGZ  = 48)
  gives a total of   1331 points

 initial charge density was supplied:
 charge density of overlapping atoms calculated
 number of electron       3.0000000 magnetization       1.0000000
 keeping initial charge density in first step


--------------------------------------------------------------------------------------------------------


 Maximum index for augmentation-charges         2041 (set IRDMAX)


--------------------------------------------------------------------------------------------------------


 First call to EWALD:  gamma=   0.692
 Maximum number of real-space cells 3x 3x 3
 Maximum number of reciprocal cells 3x 3x 3

 FEWALD executed in parallel
    FEWALD:  cpu time    0.0040: real time    0.0018


----------------------------------------- Iteration    1(   1)  ---------------------------------------


vdW kernel read from vdw_kernel.bindat
  0.0000  0.2424  0.5071  0.7962  1.1119  1.4567  1.8333  2.2446  2.6937  3.1842
  3.7199  4.3049  4.9438  5.6415  6.4036  7.2358  8.1446  9.1372 10.2212 11.4050
 12.6979 14.1099 15.6519 17.3360 19.1751 21.1837 23.3773 25.7729 28.3892 31.2465
 34.3669 37.7748 41.4965 45.5611 50.0000

    POTLOK:  cpu time    4.2003: real time    4.2508
    SETDIJ:  cpu time    0.0160: real time    0.0178
     EDDAV:  cpu time    9.7726: real time    9.7715
       DOS:  cpu time    0.0720: real time    0.0745
    --------------------------------------------
      LOOP:  cpu time   14.0649: real time   14.1217

 eigenvalue-minimisations  : 16824
 total energy-change (2. order) : 0.3393781E+01  (-0.9134348E+02)
 number of electron       3.0000000 magnetization       1.0000000
 augmentation part        3.0000000 magnetization       1.0000000

 Free energy of the ion-electron system (eV)
  ---------------------------------------------------
  alpha Z        PSCENC =        -0.19966009
  Ewald energy   TEWEN  =       -73.04269866
  -Hartree energ DENC   =        -0.10902240
  -exchange      EXHF   =         0.00000000
  -V(xc)+E(xc)   XCENC  =       -26.92784474
  PAW double counting   =        71.19088396      -37.99710770
  entropy T*S    EENTRO =        -0.01134907
  eigenvalues    EBANDS =        16.08487655
  atomic energy  EATOM  =        54.40570287
  Solvation  Ediel_sol  =         0.00000000
  ---------------------------------------------------
  free energy    TOTEN  =         3.39378072 eV

  energy without entropy =        3.40512980  energy(sigma->0) =        3.39945526


--------------------------------------------------------------------------------------------------------




----------------------------------------- Iteration    1(   2)  ---------------------------------------


     EDDAV:  cpu time   12.7048: real time   12.7045
       DOS:  cpu time    0.0800: real time    0.0817
    --------------------------------------------
      LOOP:  cpu time   12.8048: real time   13.1517

 eigenvalue-minimisations  : 23076
 total energy-change (2. order) :-0.5169068E+01  (-0.4985351E+01)
 number of electron       3.0000000 magnetization       1.0000000
 augmentation part        3.0000000 magnetization       1.0000000

 Free energy of the ion-electron system (eV)
  ---------------------------------------------------
  alpha Z        PSCENC =        -0.19966009
  Ewald energy   TEWEN  =       -73.04269866
  -Hartree energ DENC   =        -0.10902240
  -exchange      EXHF   =         0.00000000
  -V(xc)+E(xc)   XCENC  =       -26.92784474
  PAW double counting   =        71.19088396      -37.99710770
  entropy T*S    EENTRO =        -0.01495687
  eigenvalues    EBANDS =        10.91941598
  atomic energy  EATOM  =        54.40570287
  Solvation  Ediel_sol  =         0.00000000
  ---------------------------------------------------
  free energy    TOTEN  =        -1.77528764 eV

  energy without entropy =       -1.76033077  energy(sigma->0) =       -1.76780921


--------------------------------------------------------------------------------------------------------




----------------------------------------- Iteration    1(   3)  ---------------------------------------


     EDDAV:  cpu time   12.3168: real time   12.3835
       DOS:  cpu time    0.0880: real time    0.0880
    --------------------------------------------
      LOOP:  cpu time   12.4288: real time   12.8118

 eigenvalue-minimisations  : 22276
 total energy-change (2. order) :-0.5422922E-01  (-0.5402969E-01)
 number of electron       3.0000000 magnetization       1.0000000
 augmentation part        3.0000000 magnetization       1.0000000

 Free energy of the ion-electron system (eV)
  ---------------------------------------------------
  alpha Z        PSCENC =        -0.19966009
  Ewald energy   TEWEN  =       -73.04269866
  -Hartree energ DENC   =        -0.10902240
  -exchange      EXHF   =         0.00000000
  -V(xc)+E(xc)   XCENC  =       -26.92784474
  PAW double counting   =        71.19088396      -37.99710770
  entropy T*S    EENTRO =        -0.01493082
  eigenvalues    EBANDS =        10.86516071
  atomic energy  EATOM  =        54.40570287
  Solvation  Ediel_sol  =         0.00000000
  ---------------------------------------------------
  free energy    TOTEN  =        -1.82951686 eV

  energy without entropy =       -1.81458604  energy(sigma->0) =       -1.82205145


--------------------------------------------------------------------------------------------------------




----------------------------------------- Iteration    1(   4)  ---------------------------------------


     EDDAV:  cpu time   12.5328: real time   12.5389
       DOS:  cpu time    0.0880: real time    0.0883
    --------------------------------------------
      LOOP:  cpu time   12.6448: real time   12.8844

 eigenvalue-minimisations  : 22852
 total energy-change (2. order) :-0.9485856E-04  (-0.9483632E-04)
 number of electron       3.0000000 magnetization       1.0000000
 augmentation part        3.0000000 magnetization       1.0000000

 Free energy of the ion-electron system (eV)
  ---------------------------------------------------
  alpha Z        PSCENC =        -0.19966009
  Ewald energy   TEWEN  =       -73.04269866
  -Hartree energ DENC   =        -0.10902240
  -exchange      EXHF   =         0.00000000
  -V(xc)+E(xc)   XCENC  =       -26.92784474
  PAW double counting   =        71.19088396      -37.99710770
  entropy T*S    EENTRO =        -0.01493056
  eigenvalues    EBANDS =        10.86506560
  atomic energy  EATOM  =        54.40570287
  Solvation  Ediel_sol  =         0.00000000
  ---------------------------------------------------
  free energy    TOTEN  =        -1.82961172 eV

  energy without entropy =       -1.81468116  energy(sigma->0) =       -1.82214644


--------------------------------------------------------------------------------------------------------




----------------------------------------- Iteration    1(   5)  ---------------------------------------


     EDDAV:  cpu time   12.1608: real time   12.2135
       DOS:  cpu time    0.0880: real time    0.0883
    CHARGE:  cpu time    0.2000: real time    0.1999
    MIXING:  cpu time    0.0000: real time    0.0011
    --------------------------------------------
      LOOP:  cpu time   12.4768: real time   12.9523

 eigenvalue-minimisations  : 22084
 total energy-change (2. order) :-0.2484237E-06  (-0.2479412E-06)
 number of electron       3.0000000 magnetization       0.2016036
 augmentation part       -0.0420925 magnetization      -0.2344763

 Broyden mixing:
  rms(total) = 0.17318E+00    rms(broyden)= 0.17318E+00
  rms(prec ) = 0.36812E+00
  weight for this iteration     100.00

 Free energy of the ion-electron system (eV)
  ---------------------------------------------------
  alpha Z        PSCENC =        -0.19966009
  Ewald energy   TEWEN  =       -73.04269866
  -Hartree energ DENC   =        -0.10902240
  -exchange      EXHF   =         0.00000000
  -V(xc)+E(xc)   XCENC  =       -26.92784474
  PAW double counting   =        71.19088396      -37.99710770
  entropy T*S    EENTRO =        -0.01493056
  eigenvalues    EBANDS =        10.86506535
  atomic energy  EATOM  =        54.40570287
  Solvation  Ediel_sol  =         0.00000000
  ---------------------------------------------------
  free energy    TOTEN  =        -1.82961197 eV

  energy without entropy =       -1.81468141  energy(sigma->0) =       -1.82214669


--------------------------------------------------------------------------------------------------------




----------------------------------------- Iteration    1(   6)  ---------------------------------------


    POTLOK:  cpu time    2.5802: real time    2.5940
    SETDIJ:  cpu time    0.0160: real time    0.0175
     EDDAV:  cpu time   14.9049: real time   14.9027
       DOS:  cpu time    0.1160: real time    0.1173
    CHARGE:  cpu time    0.1680: real time    0.1692
    MIXING:  cpu time    0.0040: real time    0.0011
    --------------------------------------------
      LOOP:  cpu time   17.7931: real time   18.0241

 eigenvalue-minimisations  : 24256
 total energy-change (2. order) :-0.1573647E+00  (-0.5457124E-03)
 number of electron       3.0000000 magnetization      -0.0722234
 augmentation part       -0.0404007 magnetization      -0.1762504

 Broyden mixing:
  rms(total) = 0.72379E-01    rms(broyden)= 0.72379E-01
  rms(prec ) = 0.23932E+00
  weight for this iteration     100.00

 eigenvalues of (default mixing * dielectric matrix)
  average eigenvalue GAMMA=   1.1589
  1.1589

 Free energy of the ion-electron system (eV)
  ---------------------------------------------------
  alpha Z        PSCENC =        -0.19966009
  Ewald energy   TEWEN  =       -73.04269866
  -Hartree energ DENC   =        -0.09454249
  -exchange      EXHF   =         0.00000000
  -V(xc)+E(xc)   XCENC  =       -27.00871719
  PAW double counting   =        75.99656711      -42.79327647
  entropy T*S    EENTRO =        -0.01514093
  eigenvalues    EBANDS =        10.76478921
  atomic energy  EATOM  =        54.40570287
  Solvation  Ediel_sol  =         0.00000000
  ---------------------------------------------------
  free energy    TOTEN  =        -1.98697663 eV

  energy without entropy =       -1.97183570  energy(sigma->0) =       -1.97940616


--------------------------------------------------------------------------------------------------------




----------------------------------------- Iteration    1(   7)  ---------------------------------------


    POTLOK:  cpu time    2.0921: real time    2.1206
    SETDIJ:  cpu time    0.0160: real time    0.0177
     EDDAV:  cpu time   13.1448: real time   13.1972
       DOS:  cpu time    0.0920: real time    0.0904
    CHARGE:  cpu time    0.1960: real time    0.1976
    MIXING:  cpu time    0.0000: real time    0.0010
    --------------------------------------------
      LOOP:  cpu time   15.5410: real time   15.8288

 eigenvalue-minimisations  : 23840
 total energy-change (2. order) : 0.7115167E-02  (-0.1473695E-02)
 number of electron       3.0000000 magnetization      -0.0664351
 augmentation part       -0.0411776 magnetization      -0.0245133

 Broyden mixing:
  rms(total) = 0.35556E-01    rms(broyden)= 0.35556E-01
  rms(prec ) = 0.75939E-01
  weight for this iteration     100.00

 eigenvalues of (default mixing * dielectric matrix)
  average eigenvalue GAMMA=   1.1204
  1.4402  0.8006

 Free energy of the ion-electron system (eV)
  ---------------------------------------------------
  alpha Z        PSCENC =        -0.19966009
  Ewald energy   TEWEN  =       -73.04269866
  -Hartree energ DENC   =        -0.10600151
  -exchange      EXHF   =         0.00000000
  -V(xc)+E(xc)   XCENC  =       -26.93721382
  PAW double counting   =        80.92328451      -47.71024325
  entropy T*S    EENTRO =        -0.01577691
  eigenvalues    EBANDS =        10.70274539
  atomic energy  EATOM  =        54.40570287
  Solvation  Ediel_sol  =         0.00000000
  ---------------------------------------------------
  free energy    TOTEN  =        -1.97986146 eV

  energy without entropy =       -1.96408455  energy(sigma->0) =       -1.97197301


--------------------------------------------------------------------------------------------------------




----------------------------------------- Iteration    1(   8)  ---------------------------------------


    POTLOK:  cpu time    2.1961: real time    2.1979
    SETDIJ:  cpu time    0.0160: real time    0.0176
     EDDAV:  cpu time   13.3368: real time   13.3334
       DOS:  cpu time    0.0880: real time    0.0910
    CHARGE:  cpu time    0.2000: real time    0.2001
    MIXING:  cpu time    0.0040: real time    0.0009
    --------------------------------------------
      LOOP:  cpu time   15.8450: real time   15.9381

 eigenvalue-minimisations  : 24088
 total energy-change (2. order) : 0.2484201E-02  (-0.2870032E-03)
 number of electron       3.0000000 magnetization      -0.0187777
 augmentation part       -0.0414543 magnetization       0.0110912

 Broyden mixing:
  rms(total) = 0.24116E-01    rms(broyden)= 0.24116E-01
  rms(prec ) = 0.27146E-01
  weight for this iteration     100.00

 eigenvalues of (default mixing * dielectric matrix)
  average eigenvalue GAMMA=   1.3685
  0.6403  1.1477  2.3173

 Free energy of the ion-electron system (eV)
  ---------------------------------------------------
  alpha Z        PSCENC =        -0.19966009
  Ewald energy   TEWEN  =       -73.04269866
  -Hartree energ DENC   =        -0.12062933
  -exchange      EXHF   =         0.00000000
  -V(xc)+E(xc)   XCENC  =       -26.90901938
  PAW double counting   =        80.96225075      -47.74643740
  entropy T*S    EENTRO =        -0.01589829
  eigenvalues    EBANDS =        10.68901226
  atomic energy  EATOM  =        54.40570287
  Solvation  Ediel_sol  =         0.00000000
  ---------------------------------------------------
  free energy    TOTEN  =        -1.97737726 eV

  energy without entropy =       -1.96147897  energy(sigma->0) =       -1.96942812


--------------------------------------------------------------------------------------------------------




----------------------------------------- Iteration    1(   9)  ---------------------------------------


    POTLOK:  cpu time    2.1641: real time    2.1971
    SETDIJ:  cpu time    0.0200: real time    0.0174
     EDDAV:  cpu time   13.1368: real time   13.2784
       DOS:  cpu time    0.0920: real time    0.0910
    CHARGE:  cpu time    0.1960: real time    0.1987
    MIXING:  cpu time    0.0000: real time    0.0011
    --------------------------------------------
      LOOP:  cpu time   15.6130: real time   15.9175

 eigenvalue-minimisations  : 23368
 total energy-change (2. order) :-0.6953699E-03  (-0.1495075E-04)
 number of electron       3.0000000 magnetization       0.0036965
 augmentation part       -0.0414866 magnetization       0.0123513

 Broyden mixing:
  rms(total) = 0.45719E-02    rms(broyden)= 0.45719E-02
  rms(prec ) = 0.84655E-02
  weight for this iteration     100.00

 eigenvalues of (default mixing * dielectric matrix)
  average eigenvalue GAMMA=   1.3907
  2.7734  1.3214  0.8535  0.6144

 Free energy of the ion-electron system (eV)
  ---------------------------------------------------
  alpha Z        PSCENC =        -0.19966009
  Ewald energy   TEWEN  =       -73.04269866
  -Hartree energ DENC   =        -0.12329573
  -exchange      EXHF   =         0.00000000
  -V(xc)+E(xc)   XCENC  =       -26.90736221
  PAW double counting   =        79.98551902      -46.76958679
  entropy T*S    EENTRO =        -0.01594357
  eigenvalues    EBANDS =        10.68925252
  atomic energy  EATOM  =        54.40570287
  Solvation  Ediel_sol  =         0.00000000
  ---------------------------------------------------
  free energy    TOTEN  =        -1.97807263 eV

  energy without entropy =       -1.96212906  energy(sigma->0) =       -1.97010085


--------------------------------------------------------------------------------------------------------




----------------------------------------- Iteration    1(  10)  ---------------------------------------


    POTLOK:  cpu time    2.2001: real time    2.2319
    SETDIJ:  cpu time    0.0160: real time    0.0175
     EDDAV:  cpu time   13.7129: real time   13.7180
       DOS:  cpu time    0.0920: real time    0.0911
    CHARGE:  cpu time    0.1960: real time    0.1982
    MIXING:  cpu time    0.0000: real time    0.0010
    --------------------------------------------
      LOOP:  cpu time   16.2170: real time   16.3686

 eigenvalue-minimisations  : 24176
 total energy-change (2. order) :-0.2763582E-03  (-0.2496854E-05)
 number of electron       3.0000000 magnetization       0.0041589
 augmentation part       -0.0414866 magnetization       0.0026962

 Broyden mixing:
  rms(total) = 0.17443E-02    rms(broyden)= 0.17443E-02
  rms(prec ) = 0.41094E-02
  weight for this iteration     100.00

 eigenvalues of (default mixing * dielectric matrix)
  average eigenvalue GAMMA=   1.3430
  2.8235  1.4424  0.6132  0.7967  1.0391

 Free energy of the ion-electron system (eV)
  ---------------------------------------------------
  alpha Z        PSCENC =        -0.19966009
  Ewald energy   TEWEN  =       -73.04269866
  -Hartree energ DENC   =        -0.12518407
  -exchange      EXHF   =         0.00000000
  -V(xc)+E(xc)   XCENC  =       -26.90661548
  PAW double counting   =        79.01731833      -45.80159341
  entropy T*S    EENTRO =        -0.01595535
  eigenvalues    EBANDS =        10.69033687
  atomic energy  EATOM  =        54.40570287
  Solvation  Ediel_sol  =         0.00000000
  ---------------------------------------------------
  free energy    TOTEN  =        -1.97834899 eV

  energy without entropy =       -1.96239364  energy(sigma->0) =       -1.97037131


--------------------------------------------------------------------------------------------------------




----------------------------------------- Iteration    1(  11)  ---------------------------------------


    POTLOK:  cpu time    2.1881: real time    2.2048
    SETDIJ:  cpu time    0.0200: real time    0.0175
     EDDAV:  cpu time   11.9407: real time   11.9425
       DOS:  cpu time    0.0920: real time    0.0907
    CHARGE:  cpu time    0.1960: real time    0.1975
    MIXING:  cpu time    0.0040: real time    0.0011
    --------------------------------------------
      LOOP:  cpu time   14.4449: real time   14.8499

 eigenvalue-minimisations  : 21260
 total energy-change (2. order) :-0.2854833E-03  (-0.2127750E-05)
 number of electron       3.0000000 magnetization       0.0013836
 augmentation part       -0.0414798 magnetization      -0.0008486

 Broyden mixing:
  rms(total) = 0.11542E-02    rms(broyden)= 0.11542E-02
  rms(prec ) = 0.15667E-02
  weight for this iteration     100.00

 eigenvalues of (default mixing * dielectric matrix)
  average eigenvalue GAMMA=   1.4206
  2.9093  2.1880  1.3034  0.8690  0.6082  0.6457

 Free energy of the ion-electron system (eV)
  ---------------------------------------------------
  alpha Z        PSCENC =        -0.19966009
  Ewald energy   TEWEN  =       -73.04269866
  -Hartree energ DENC   =        -0.12682257
  -exchange      EXHF   =         0.00000000
  -V(xc)+E(xc)   XCENC  =       -26.90643603
  PAW double counting   =        78.13271727      -44.91723843
  entropy T*S    EENTRO =        -0.01596201
  eigenvalues    EBANDS =        10.69176318
  atomic energy  EATOM  =        54.40570287
  Solvation  Ediel_sol  =         0.00000000
  ---------------------------------------------------
  free energy    TOTEN  =        -1.97863447 eV

  energy without entropy =       -1.96267246  energy(sigma->0) =       -1.97065347


--------------------------------------------------------------------------------------------------------




----------------------------------------- Iteration    1(  12)  ---------------------------------------


    POTLOK:  cpu time    2.1561: real time    2.1784
    SETDIJ:  cpu time    0.0200: real time    0.0173
     EDDAV:  cpu time   11.9007: real time   11.9007
       DOS:  cpu time    0.0920: real time    0.0914
    CHARGE:  cpu time    0.1960: real time    0.1994
    MIXING:  cpu time    0.0040: real time    0.0011
    --------------------------------------------
      LOOP:  cpu time   14.3689: real time   14.5293

 eigenvalue-minimisations  : 21520
 total energy-change (2. order) :-0.8420568E-04  (-0.2448585E-06)
 number of electron       3.0000000 magnetization       0.0000025
 augmentation part       -0.0414760 magnetization      -0.0007207

 Broyden mixing:
  rms(total) = 0.30770E-03    rms(broyden)= 0.30770E-03
  rms(prec ) = 0.48673E-03
  weight for this iteration     100.00

 eigenvalues of (default mixing * dielectric matrix)
  average eigenvalue GAMMA=   1.3715
  2.9073  2.3805  1.3528  0.8841  0.8171  0.6055  0.6532

 Free energy of the ion-electron system (eV)
  ---------------------------------------------------
  alpha Z        PSCENC =        -0.19966009
  Ewald energy   TEWEN  =       -73.04269866
  -Hartree energ DENC   =        -0.12689123
  -exchange      EXHF   =         0.00000000
  -V(xc)+E(xc)   XCENC  =       -26.90676029
  PAW double counting   =        78.05854817      -44.84312458
  entropy T*S    EENTRO =        -0.01596254
  eigenvalues    EBANDS =        10.69212767
  atomic energy  EATOM  =        54.40570287
  Solvation  Ediel_sol  =         0.00000000
  ---------------------------------------------------
[...]
      3       8.0852      0.00000
      4      14.4941      0.00000
      5      16.1939      0.00000
      6      24.2219      0.00000
      7      28.1306      0.00000
      8      29.6673      0.00000
      9      29.9507      0.00000
     10      34.7943      0.00000
     11      38.7081      0.00000
     12      41.4097      0.00000
     13      43.6050      0.00000
     14      46.4308      0.00000
     15      46.9889      0.00000
     16      47.8378      0.00000
     17      50.3389      0.00000
     18      51.8844      0.00000
     19      52.4797      0.00000
     20      53.2738      0.00000

 k-point   197 :       0.3816    0.3816    0.7368
  band No.  band energies     occupation 
      1       5.9339      1.00000
      2       6.2265      1.00000
      3       7.6595      0.00000
      4      14.3697      0.00000
      5      16.0480      0.00000
      6      23.7372      0.00000
      7      28.7539      0.00000
      8      29.5730      0.00000
      9      30.2723      0.00000
     10      35.1434      0.00000
     11      39.4388      0.00000
     12      41.0594      0.00000
     13      43.7052      0.00000
     14      45.9028      0.00000
     15      47.2505      0.00000
     16      47.6249      0.00000
     17      50.3183      0.00000
     18      51.6343      0.00000
     19      52.1860      0.00000
     20      52.7928      0.00000

 k-point   198 :       0.3750    0.3750    0.7500
  band No.  band energies     occupation 
      1       5.9529      1.00000
      2       6.5183      0.99369
      3       7.4293      0.00004
      4      14.2612      0.00000
      5      15.9182      0.00000
      6      23.2607      0.00000
      7      29.2437      0.00000
      8      29.6278      0.00000
      9      30.5510      0.00000
     10      35.4548      0.00000
     11      39.9872      0.00000
     12      40.9864      0.00000
     13      43.6077      0.00000
     14      45.4870      0.00000
     15      47.3249      0.00000
     16      47.4197      0.00000
     17      50.2307      0.00000
     18      51.3194      0.00000
     19      52.0183      0.00000
     20      52.1614      0.00000

 k-point   199 :       0.6250    0.2500    0.6250
  band No.  band energies     occupation 
      1       5.9529      1.00000
      2       6.5183      0.99369
      3       7.4293      0.00004
      4      14.2612      0.00000
      5      15.9182      0.00000
      6      23.2607      0.00000
      7      29.2437      0.00000
      8      29.6278      0.00000
      9      30.5510      0.00000
     10      35.4548      0.00000
     11      39.9872      0.00000
     12      40.9864      0.00000
     13      43.6077      0.00000
     14      45.4870      0.00000
     15      47.3249      0.00000
     16      47.4197      0.00000
     17      50.2307      0.00000
     18      51.3194      0.00000
     19      52.0183      0.00000
     20      52.1614      0.00000

 k-point   200 :       0.6136    0.2273    0.6136
  band No.  band energies     occupation 
      1       5.7752      1.00000
      2       6.9678      0.24685
      3       7.3627      0.00025
      4      14.0954      0.00000
      5      15.7146      0.00000
      6      22.4495      0.00000
      7      29.6696      0.00000
      8      30.1581      0.00000
      9      30.9945      0.00000
     10      35.9778      0.00000
     11      40.4229      0.00000
     12      41.4233      0.00000
     13      43.2340      0.00000
     14      44.8931      0.00000
     15      47.0616      0.00000
     16      47.2194      0.00000
     17      49.9193      0.00000
     18      50.9406      0.00000
     19      51.4260      0.00000
     20      51.7904      0.00000

 k-point   201 :       0.6023    0.2045    0.6023
  band No.  band energies     occupation 
      1       5.6145      1.00000
      2       6.9756      0.22981
      3       7.7679      0.00000
      4      13.9455      0.00000
      5      15.5231      0.00000
      6      21.6485      0.00000
      7      30.0969      0.00000
      8      30.6919      0.00000
      9      31.4388      0.00000
     10      36.5118      0.00000
     11      40.8258      0.00000
     12      41.8419      0.00000
     13      42.8511      0.00000
     14      44.2897      0.00000
     15      46.7083      0.00000
     16      47.0861      0.00000
     17      49.6571      0.00000
     18      50.6347      0.00000
     19      50.7513      0.00000
     20      51.5806      0.00000

 k-point   202 :       0.5909    0.1818    0.5909
  band No.  band energies     occupation 
      1       5.4708      1.00000
      2       6.8478      0.56524
      3       8.3381      0.00000
      4      13.8113      0.00000
      5      15.3419      0.00000
      6      20.8636      0.00000
      7      30.5216      0.00000
      8      31.2256      0.00000
      9      31.8801      0.00000
     10      37.0535      0.00000
     11      41.1724      0.00000
     12      42.2259      0.00000
     13      42.4578      0.00000
     14      43.6895      0.00000
     15      46.4018      0.00000
     16      46.9475      0.00000
     17      49.4370      0.00000
     18      50.1420      0.00000
     19      50.3900      0.00000
     20      51.3847      0.00000

 k-point   203 :       0.5795    0.1591    0.5795
  band No.  band energies     occupation 
      1       5.3440      1.00000
      2       6.7210      0.85557
      3       8.9354      0.00000
      4      13.6930      0.00000
      5      15.1676      0.00000
      6      20.1016      0.00000
      7      30.9387      0.00000
      8      31.7541      0.00000
      9      32.3133      0.00000
     10      37.5991      0.00000
     11      41.4315      0.00000
     12      42.0554      0.00000
     13      42.5525      0.00000
     14      43.1052      0.00000
     15      46.1908      0.00000
     16      46.8322      0.00000
     17      49.2531      0.00000
     18      49.6021      0.00000
     19      50.1951      0.00000
     20      51.1975      0.00000

 k-point   204 :       0.5682    0.1364    0.5682
  band No.  band energies     occupation 
      1       5.2341      1.00000
      2       6.6077      0.96869
      3       9.5457      0.00000
      4      13.5905      0.00000
      5      14.9945      0.00000
      6      19.3713      0.00000
      7      31.3414      0.00000
      8      32.2705      0.00000
      9      32.7315      0.00000
     10      38.1442      0.00000
     11      41.5735      0.00000
     12      41.6480      0.00000
     13      42.5490      0.00000
     14      42.7921      0.00000
     15      46.1212      0.00000
     16      46.7751      0.00000
     17      49.1007      0.00000
     18      49.1346      0.00000
     19      50.0406      0.00000
     20      51.0079      0.00000

 k-point   205 :       0.5568    0.1136    0.5568
  band No.  band energies     occupation 
      1       5.1411      1.00000
      2       6.5106      0.99460
      3      10.1640      0.00000
      4      13.5037      0.00000
      5      14.8138      0.00000
      6      18.6854      0.00000
      7      31.7205      0.00000
      8      32.7648      0.00000
      9      33.1257      0.00000
     10      38.6835      0.00000
     11      41.2437      0.00000
     12      41.5885      0.00000
     13      42.0343      0.00000
     14      42.9148      0.00000
     15      46.2180      0.00000
     16      46.8119      0.00000
     17      48.7410      0.00000
     18      48.9763      0.00000
     19      49.9193      0.00000
     20      50.7891      0.00000

 k-point   206 :       0.5455    0.0909    0.5455
  band No.  band energies     occupation 
      1       5.0651      1.00000
      2       6.4305      0.99908
      3      10.7856      0.00000
      4      13.4328      0.00000
      5      14.6108      0.00000
      6      18.0630      0.00000
      7      32.0644      0.00000
      8      33.2234      0.00000
      9      33.4838      0.00000
     10      39.2090      0.00000
     11      40.8562      0.00000
     12      41.5004      0.00000
     13      41.5758      0.00000
     14      42.9048      0.00000
     15      46.4691      0.00000
     16      46.9644      0.00000
     17      48.4215      0.00000
     18      48.8774      0.00000
     19      49.8254      0.00000
     20      50.4883      0.00000

 k-point   207 :       0.5341    0.0682    0.5341
  band No.  band energies     occupation 
      1       5.0060      1.00000
      2       6.3679      0.99981
      3      11.4044      0.00000
      4      13.3776      0.00000
      5      14.3647      0.00000
      6      17.5313      0.00000
      7      32.3586      0.00000
      8      33.6266      0.00000
      9      33.7908      0.00000
     10      39.7082      0.00000
     11      40.5058      0.00000
     12      41.1899      0.00000
     13      41.3570      0.00000
     14      42.7755      0.00000
     15      46.8362      0.00000
     16      47.2305      0.00000
     17      48.1753      0.00000
     18      48.8020      0.00000
     19      49.7547      0.00000
     20      50.0682      0.00000

 k-point   208 :       0.5227    0.0455    0.5227
  band No.  band energies     occupation 
      1       4.9637      1.00000
      2       6.3231      0.99995
      3      12.0112      0.00000
      4      13.3382      0.00000
      5      14.0519      0.00000
      6      17.1235      0.00000
      7      32.5866      0.00000
      8      33.9490      0.00000
      9      34.0294      0.00000
     10      40.1573      0.00000
     11      40.2196      0.00000
     12      40.8953      0.00000
     13      41.2108      0.00000
     14      42.5689      0.00000
     15      47.2653      0.00000
     16      47.5880      0.00000
     17      48.0009      0.00000
     18      48.7490      0.00000
     19      49.5721      0.00000
     20      49.7053      0.00000

 k-point   209 :       0.5114    0.0227    0.5114
  band No.  band energies     occupation 
      1       4.9384      1.00000
      2       6.2962      0.99998
      3      12.5883      0.00000
      4      13.3146      0.00000
      5      13.6611      0.00000
      6      16.8689      0.00000
      7      32.7320      0.00000
      8      34.1605      0.00000
      9      34.1820      0.00000
     10      40.0292      0.00000
     11      40.5045      0.00000
     12      40.7097      0.00000
     13      41.1044      0.00000
     14      42.3582      0.00000
     15      47.6700      0.00000
     16      47.8971      0.00000
     17      48.0042      0.00000
     18      48.7175      0.00000
     19      49.0655      0.00000
     20      49.6734      0.00000

 k-point   210 :       0.5000    0.0000    0.5000
  band No.  band energies     occupation 
      1       4.9300      1.00000
      2       6.2872      0.99998
      3      13.0060      0.00000
      4      13.3067      0.00000
      5      13.3067      0.00000
      6      16.7829      0.00000
      7      32.7821      0.00000
      8      34.2346      0.00000
      9      34.2346      0.00000
     10      39.9619      0.00000
     11      40.6462      0.00000
     12      40.6462      0.00000
     13      41.0657      0.00000
     14      42.2604      0.00000
     15      47.8626      0.00000
     16      47.8626      0.00000
     17      48.3320      0.00000
     18      48.7071      0.00000
     19      48.7071      0.00000
     20      49.6360      0.00000


--------------------------------------------------------------------------------------------------------


 soft charge-density along one line, spin component           1
         0         1         2         3         4         5         6         7         8         9
 total charge-density along one line

 soft charge-density along one line, spin component           2
         0         1         2         3         4         5         6         7         8         9
 total charge-density along one line

 pseudopotential strength for first ion, spin component:           1
  8.556  14.574   0.000   0.000  -0.000   0.000   0.000  -0.000
 14.574  24.825   0.000   0.000  -0.000   0.000   0.000  -0.000
  0.000   0.000   2.015   0.000  -0.000   5.788   0.000  -0.000
  0.000   0.000   0.000   2.015   0.000   0.000   5.788   0.000
 -0.000  -0.000  -0.000   0.000   2.015  -0.000   0.000   5.788
  0.000   0.000   5.788   0.000  -0.000  16.549   0.000  -0.000
  0.000   0.000   0.000   5.788   0.000   0.000  16.549   0.000
 -0.000  -0.000  -0.000   0.000   5.788  -0.000   0.000  16.549
 pseudopotential strength for first ion, spin component:           2
  8.556  14.574   0.000   0.000  -0.000   0.000   0.000  -0.000
 14.574  24.825   0.000   0.000  -0.000   0.000   0.000  -0.000
  0.000   0.000   2.015   0.000  -0.000   5.788   0.000  -0.000
  0.000   0.000   0.000   2.015   0.000   0.000   5.788   0.000
 -0.000  -0.000  -0.000   0.000   2.015  -0.000   0.000   5.788
  0.000   0.000   5.788   0.000  -0.000  16.549   0.000  -0.000
  0.000   0.000   0.000   5.788   0.000   0.000  16.549   0.000
 -0.000  -0.000  -0.000   0.000   5.788  -0.000   0.000  16.549
 total augmentation occupancy for first ion, spin component:           1
  0.919  -0.213   0.000   0.000   0.000   0.000   0.000   0.000
 -0.213   0.372   0.000   0.000   0.000   0.000   0.000   0.000
  0.000   0.000   0.824   0.000   0.000  -0.002   0.000  -0.000
  0.000   0.000   0.000   0.824   0.000  -0.000  -0.002   0.000
  0.000   0.000   0.000  -0.000   0.824  -0.000   0.000  -0.002
  0.000   0.000  -0.002  -0.000  -0.000   0.000   0.000   0.000
  0.000   0.000   0.000  -0.002   0.000   0.000   0.000   0.000
  0.000   0.000  -0.000  -0.000  -0.002   0.000  -0.000   0.000
 total augmentation occupancy for first ion, spin component:           2
 -0.000   0.000   0.000   0.000   0.000   0.000   0.000   0.000
  0.000  -0.000   0.000   0.000   0.000   0.000   0.000   0.000
  0.000   0.000   0.000   0.000   0.000  -0.000   0.000  -0.000
  0.000   0.000  -0.000   0.000  -0.000  -0.000  -0.000  -0.000
  0.000   0.000   0.000   0.000   0.000  -0.000  -0.000  -0.000
  0.000   0.000  -0.000  -0.000  -0.000  -0.000   0.000  -0.000
  0.000   0.000  -0.000  -0.000  -0.000  -0.000  -0.000  -0.000
  0.000   0.000  -0.000  -0.000  -0.000  -0.000  -0.000  -0.000


------------------------ aborting loop because EDIFF is reached ----------------------------------------





 total charge     

# of ion     s       p       d       tot
----------------------------------------
  1        0.370   0.350   0.000   0.720



 magnetization (x)

# of ion     s       p       d       tot
----------------------------------------
  1        0.000   0.000   0.000   0.000

    CHARGE:  cpu time    0.1760: real time    0.1763
    FORLOC:  cpu time    0.0040: real time    0.0008
    FORNL :  cpu time    0.1240: real time    0.1255
    STRESS:  cpu time    0.5000: real time    0.4981
    FORCOR:  cpu time    2.2041: real time    2.2050
    FORHAR:  cpu time    0.0040: real time    0.0043
    MIXING:  cpu time    0.0000: real time    0.0017
    OFIELD:  cpu time    0.0000: real time    0.0000

  FORCE on cell =-STRESS in cart. coord.  units (eV):
  Direction    XX          YY          ZZ          XY          YZ          ZX
  --------------------------------------------------------------------------------------
  Alpha Z    -0.19966    -0.19966    -0.19966
  Ewald     -24.34756   -24.34757   -24.34757    -0.00000    -0.00000     0.00000
  Hartree     0.04228     0.04228     0.04228     0.00000     0.00000     0.00000
  E(xc)      -8.65748    -8.65748    -8.65748     0.00000     0.00000     0.00000
  Local       0.33938     0.33939     0.33938     0.00000    -0.00000    -0.00000
  n-local    19.04759    18.97151    17.98867     0.16792    -0.56887    -0.24563
  augment    -1.10375    -1.10375    -1.10375     0.00000     0.00000     0.00000
  Kinetic     9.83826    11.27947    24.24910     1.99879    -0.27810    10.08386
  Fock        0.00000     0.00000     0.00000     0.00000     0.00000     0.00000
  -------------------------------------------------------------------------------------
  Total      -0.13527    -0.13527    -0.13527    -0.00000     0.00000    -0.00000
  in kB     -12.88271   -12.88272   -12.88272    -0.00000     0.00000    -0.00000
  external pressure =      -12.88 kB  Pullay stress =        0.00 kB


 VOLUME and BASIS-vectors are now :
 -----------------------------------------------------------------------------
  energy-cutoff  :      500.00
  volume of cell :       16.82
      direct lattice vectors                 reciprocal lattice vectors
     2.490770000 -0.000000000  1.438047000     0.401482273 -0.141945444  0.000000000
     0.830257000  2.348321000  1.438047000     0.000000000  0.425836161  0.000000000
    -0.000000000 -0.000000000  2.876094000    -0.200741136 -0.141945359  0.347693782

  length of vectors
     2.876093595  2.876094119  2.876094000     0.425836265  0.425836161  0.425836183


 FORCES acting on ions
    electron-ion (+dipol)            ewald-force                    non-local-force                 convergence-correction
 -----------------------------------------------------------------------------------------------
   0.164E-14 -.761E-15 0.662E-15   0.151E-15 -.510E-16 -.646E-16   -.404E-27 0.000E+00 0.162E-26   -.902E-17 0.718E-18 0.409E-17
 -----------------------------------------------------------------------------------------------
   0.164E-14 -.761E-15 0.662E-15   0.151E-15 -.510E-16 -.646E-16   -.404E-27 0.000E+00 0.162E-26   -.902E-17 0.718E-18 0.409E-17


 POSITION                                       TOTAL-FORCE (eV/Angst)
 -----------------------------------------------------------------------------------
      0.00000      0.00000      0.00000         0.000000      0.000000     -0.000000
 -----------------------------------------------------------------------------------
    total drift:                                0.000000     -0.000000      0.000000


--------------------------------------------------------------------------------------------------------



  FREE ENERGIE OF THE ION-ELECTRON SYSTEM (eV)
  ---------------------------------------------------
  free  energy   TOTEN  =        -1.97870152 eV

  energy  without entropy=       -1.96273910  energy(sigma->0) =       -1.97072031



--------------------------------------------------------------------------------------------------------


    POTLOK:  cpu time    2.2001: real time    2.2003


--------------------------------------------------------------------------------------------------------


     LOOP+:  cpu time  274.2411: real time  280.0007
    4ORBIT:  cpu time    0.0000: real time    0.0000



 total charge     

# of ion     s       p       d       tot
----------------------------------------
  1        0.370   0.350   0.000   0.720



 magnetization (x)

# of ion     s       p       d       tot
----------------------------------------
  1        0.000   0.000   0.000   0.000


 total amount of memory used by VASP on root node    37058. kBytes
========================================================================

   base      :      30000. kBytes
   nonl-proj :       1614. kBytes
   fftplans  :        344. kBytes
   grid      :        794. kBytes
   one-center:          6. kBytes
   wavefun   :       4300. kBytes

  
  
 General timing and accounting informations for this job:
 ========================================================
  
                  Total CPU time used (sec):      278.365
                            User time (sec):      278.181
                          System time (sec):        0.184
                         Elapsed time (sec):      287.168
  
                   Maximum memory used (kb):      103568.
                   Average memory used (kb):           0.
  
                          Minor page faults:        28015
                          Major page faults:            2
                 Voluntary context switches:          864
