<?xml version="1.0" encoding="ISO-8859-1"?>
<modeling>
 <generator>
  <i name="program" type="string">vasp </i>
  <i name="version" type="string">5.4.1  </i>
  <i name="subversion" type="string">24Jun15 (build Jul  1 2016 12:41:44) complex                          parallel </i>
  <i name="platform" type="string">IFC91_ompi </i>
  <i name="date" type="string">2017 08 21 </i>
  <i name="time" type="string">11:03:35 </i>
 </generator>
 <incar>
  <i type="string" name="PREC">accurate</i>
  <i type="int" name="ISPIN">     2</i>
  <i type="int" name="NELM">   400</i>
  <i type="int" name="IBRION">     1</i>
  <i name="EDIFF">      0.00000010</i>
  <i type="int" name="ISIF">     2</i>
  <i name="ENCUT">    500.00000000</i>
  <i type="int" name="NBANDS">    18</i>
  <i type="int" name="NEDOS">  5000</i>
  <i type="int" name="ISMEAR">     0</i>
  <i type="logical" name="LWAVE"> F  </i>
  <i type="logical" name="LCHARG"> F  </i>
  <i type="logical" name="LORBIT"> F  </i>
  <v type="int" name="KPOINT_BSE">    -1     0     0     0</v>
  <i type="int" name="NELM">   400</i>
  <i type="string" name="GGA"> Bo</i>
  <i name="PARAM1">      0.18333333</i>
  <i name="PARAM2">      0.22000000</i>
  <i type="logical" name="LUSE_VDW"> T  </i>
  <i name="AGGAC">      0.00000000</i>
 </incar>
 <kpoints>
  <varray name="kpointlist" >
   <v>       0.00000000       0.00000000       0.00000000 </v>
   <v>       0.01612903       0.00000000       0.01612903 </v>
   <v>       0.03225806       0.00000000       0.03225806 </v>
   <v>       0.04838710       0.00000000       0.04838710 </v>
   <v>       0.06451613       0.00000000       0.06451613 </v>
   <v>       0.08064516       0.00000000       0.08064516 </v>
   <v>       0.09677419       0.00000000       0.09677419 </v>
   <v>       0.11290323       0.00000000       0.11290323 </v>
   <v>       0.12903226       0.00000000       0.12903226 </v>
   <v>       0.14516129       0.00000000       0.14516129 </v>
   <v>       0.16129032       0.00000000       0.16129032 </v>
   <v>       0.17741935       0.00000000       0.17741935 </v>
   <v>       0.19354839       0.00000000       0.19354839 </v>
   <v>       0.20967742       0.00000000       0.20967742 </v>
   <v>       0.22580645       0.00000000       0.22580645 </v>
   <v>       0.24193548       0.00000000       0.24193548 </v>
   <v>       0.25806452       0.00000000       0.25806452 </v>
   <v>       0.27419355       0.00000000       0.27419355 </v>
   <v>       0.29032258       0.00000000       0.29032258 </v>
   <v>       0.30645161       0.00000000       0.30645161 </v>
   <v>       0.32258065       0.00000000       0.32258065 </v>
   <v>       0.33870968       0.00000000       0.33870968 </v>
   <v>       0.35483871       0.00000000       0.35483871 </v>
   <v>       0.37096774       0.00000000       0.37096774 </v>
   <v>       0.38709677       0.00000000       0.38709677 </v>
   <v>       0.40322581       0.00000000       0.40322581 </v>
   <v>       0.41935484       0.00000000       0.41935484 </v>
   <v>       0.43548387       0.00000000       0.43548387 </v>
   <v>       0.45161290       0.00000000       0.45161290 </v>
   <v>       0.46774194       0.00000000       0.46774194 </v>
   <v>       0.48387097       0.00000000       0.48387097 </v>
   <v>       0.50000000       0.00000000       0.50000000 </v>
   <v>       0.50000000       0.00000000       0.50000000 </v>
   <v>       0.50000000       0.01562500       0.51562500 </v>
   <v>       0.50000000       0.03125000       0.53125000 </v>
   <v>       0.50000000       0.04687500       0.54687500 </v>
   <v>       0.50000000       0.06250000       0.56250000 </v>
   <v>       0.50000000       0.07812500       0.57812500 </v>
   <v>       0.50000000       0.09375000       0.59375000 </v>
   <v>       0.50000000       0.10937500       0.60937500 </v>
   <v>       0.50000000       0.12500000       0.62500000 </v>
   <v>       0.50000000       0.14062500       0.64062500 </v>
   <v>       0.50000000       0.15625000       0.65625000 </v>
   <v>       0.50000000       0.17187500       0.67187500 </v>
   <v>       0.50000000       0.18750000       0.68750000 </v>
   <v>       0.50000000       0.20312500       0.70312500 </v>
   <v>       0.50000000       0.21875000       0.71875000 </v>
   <v>       0.50000000       0.23437500       0.73437500 </v>
   <v>       0.50000000       0.25000000       0.75000000 </v>
   <v>       0.50000000       0.25000000       0.75000000 </v>
   <v>       0.48863636       0.26136364       0.75000000 </v>
   <v>       0.47727273       0.27272727       0.75000000 </v>
   <v>       0.46590909       0.28409091       0.75000000 </v>
   <v>       0.45454545       0.29545455       0.75000000 </v>
   <v>       0.44318182       0.30681818       0.75000000 </v>
   <v>       0.43181818       0.31818182       0.75000000 </v>
   <v>       0.42045455       0.32954545       0.75000000 </v>
   <v>       0.40909091       0.34090909       0.75000000 </v>
   <v>       0.39772727       0.35227273       0.75000000 </v>
   <v>       0.38636364       0.36363636       0.75000000 </v>
   <v>       0.37500000       0.37500000       0.75000000 </v>
   <v>       0.37500000       0.37500000       0.75000000 </v>
   <v>       0.36363636       0.36363636       0.72727273 </v>
   <v>       0.35227273       0.35227273       0.70454545 </v>
   <v>       0.34090909       0.34090909       0.68181818 </v>
   <v>       0.32954545       0.32954545       0.65909091 </v>
   <v>       0.31818182       0.31818182       0.63636364 </v>
   <v>       0.30681818       0.30681818       0.61363636 </v>
   <v>       0.29545455       0.29545455       0.59090909 </v>
   <v>       0.28409091       0.28409091       0.56818182 </v>
   <v>       0.27272727       0.27272727       0.54545455 </v>
   <v>       0.26136364       0.26136364       0.52272727 </v>
   <v>       0.25000000       0.25000000       0.50000000 </v>
   <v>       0.23863636       0.23863636       0.47727273 </v>
   <v>       0.22727273       0.22727273       0.45454545 </v>
   <v>       0.21590909       0.21590909       0.43181818 </v>
   <v>       0.20454545       0.20454545       0.40909091 </v>
   <v>       0.19318182       0.19318182       0.38636364 </v>
   <v>       0.18181818       0.18181818       0.36363636 </v>
   <v>       0.17045455       0.17045455       0.34090909 </v>
   <v>       0.15909091       0.15909091       0.31818182 </v>
   <v>       0.14772727       0.14772727       0.29545455 </v>
   <v>       0.13636364       0.13636364       0.27272727 </v>
   <v>       0.12500000       0.12500000       0.25000000 </v>
   <v>       0.11363636       0.11363636       0.22727273 </v>
   <v>       0.10227273       0.10227273       0.20454545 </v>
   <v>       0.09090909       0.09090909       0.18181818 </v>
   <v>       0.07954545       0.07954545       0.15909091 </v>
   <v>       0.06818182       0.06818182       0.13636364 </v>
   <v>       0.05681818       0.05681818       0.11363636 </v>
   <v>       0.04545455       0.04545455       0.09090909 </v>
   <v>       0.03409091       0.03409091       0.06818182 </v>
   <v>       0.02272727       0.02272727       0.04545455 </v>
   <v>       0.01136364       0.01136364       0.02272727 </v>
   <v>       0.00000000       0.00000000       0.00000000 </v>
   <v>       0.00000000       0.00000000       0.00000000 </v>
   <v>       0.01851852       0.01851852       0.01851852 </v>
   <v>       0.03703704       0.03703704       0.03703704 </v>
   <v>       0.05555556       0.05555556       0.05555556 </v>
   <v>       0.07407407       0.07407407       0.07407407 </v>
   <v>       0.09259259       0.09259259       0.09259259 </v>
   <v>       0.11111111       0.11111111       0.11111111 </v>
   <v>       0.12962963       0.12962963       0.12962963 </v>
   <v>       0.14814815       0.14814815       0.14814815 </v>
   <v>       0.16666667       0.16666667       0.16666667 </v>
   <v>       0.18518519       0.18518519       0.18518519 </v>
   <v>       0.20370370       0.20370370       0.20370370 </v>
   <v>       0.22222222       0.22222222       0.22222222 </v>
   <v>       0.24074074       0.24074074       0.24074074 </v>
   <v>       0.25925926       0.25925926       0.25925926 </v>
   <v>       0.27777778       0.27777778       0.27777778 </v>
   <v>       0.29629630       0.29629630       0.29629630 </v>
   <v>       0.31481481       0.31481481       0.31481481 </v>
   <v>       0.33333333       0.33333333       0.33333333 </v>
   <v>       0.35185185       0.35185185       0.35185185 </v>
   <v>       0.37037037       0.37037037       0.37037037 </v>
   <v>       0.38888889       0.38888889       0.38888889 </v>
   <v>       0.40740741       0.40740741       0.40740741 </v>
   <v>       0.42592593       0.42592593       0.42592593 </v>
   <v>       0.44444444       0.44444444       0.44444444 </v>
   <v>       0.46296296       0.46296296       0.46296296 </v>
   <v>       0.48148148       0.48148148       0.48148148 </v>
   <v>       0.50000000       0.50000000       0.50000000 </v>
   <v>       0.50000000       0.50000000       0.50000000 </v>
   <v>       0.50657895       0.48684211       0.50657895 </v>
   <v>       0.51315789       0.47368421       0.51315789 </v>
   <v>       0.51973684       0.46052632       0.51973684 </v>
   <v>       0.52631579       0.44736842       0.52631579 </v>
   <v>       0.53289474       0.43421053       0.53289474 </v>
   <v>       0.53947368       0.42105263       0.53947368 </v>
   <v>       0.54605263       0.40789474       0.54605263 </v>
   <v>       0.55263158       0.39473684       0.55263158 </v>
   <v>       0.55921053       0.38157895       0.55921053 </v>
   <v>       0.56578947       0.36842105       0.56578947 </v>
   <v>       0.57236842       0.35526316       0.57236842 </v>
   <v>       0.57894737       0.34210526       0.57894737 </v>
   <v>       0.58552632       0.32894737       0.58552632 </v>
   <v>       0.59210526       0.31578947       0.59210526 </v>
   <v>       0.59868421       0.30263158       0.59868421 </v>
   <v>       0.60526316       0.28947368       0.60526316 </v>
   <v>       0.61184211       0.27631579       0.61184211 </v>
   <v>       0.61842105       0.26315789       0.61842105 </v>
   <v>       0.62500000       0.25000000       0.62500000 </v>
   <v>       0.62500000       0.25000000       0.62500000 </v>
   <v>       0.61363636       0.25000000       0.63636364 </v>
   <v>       0.60227273       0.25000000       0.64772727 </v>
   <v>       0.59090909       0.25000000       0.65909091 </v>
   <v>       0.57954545       0.25000000       0.67045455 </v>
   <v>       0.56818182       0.25000000       0.68181818 </v>
   <v>       0.55681818       0.25000000       0.69318182 </v>
   <v>       0.54545455       0.25000000       0.70454545 </v>
   <v>       0.53409091       0.25000000       0.71590909 </v>
   <v>       0.52272727       0.25000000       0.72727273 </v>
   <v>       0.51136364       0.25000000       0.73863636 </v>
   <v>       0.50000000       0.25000000       0.75000000 </v>
   <v>       0.50000000       0.25000000       0.75000000 </v>
   <v>       0.50000000       0.26136364       0.73863636 </v>
   <v>       0.50000000       0.27272727       0.72727273 </v>
   <v>       0.50000000       0.28409091       0.71590909 </v>
   <v>       0.50000000       0.29545455       0.70454545 </v>
   <v>       0.50000000       0.30681818       0.69318182 </v>
   <v>       0.50000000       0.31818182       0.68181818 </v>
   <v>       0.50000000       0.32954545       0.67045455 </v>
   <v>       0.50000000       0.34090909       0.65909091 </v>
   <v>       0.50000000       0.35227273       0.64772727 </v>
   <v>       0.50000000       0.36363636       0.63636364 </v>
   <v>       0.50000000       0.37500000       0.62500000 </v>
   <v>       0.50000000       0.38636364       0.61363636 </v>
   <v>       0.50000000       0.39772727       0.60227273 </v>
   <v>       0.50000000       0.40909091       0.59090909 </v>
   <v>       0.50000000       0.42045455       0.57954545 </v>
   <v>       0.50000000       0.43181818       0.56818182 </v>
   <v>       0.50000000       0.44318182       0.55681818 </v>
   <v>       0.50000000       0.45454545       0.54545455 </v>
   <v>       0.50000000       0.46590909       0.53409091 </v>
   <v>       0.50000000       0.47727273       0.52272727 </v>
   <v>       0.50000000       0.48863636       0.51136364 </v>
   <v>       0.50000000       0.50000000       0.50000000 </v>
   <v>       0.50000000       0.50000000       0.50000000 </v>
   <v>       0.49342105       0.49342105       0.51315789 </v>
   <v>       0.48684211       0.48684211       0.52631579 </v>
   <v>       0.48026316       0.48026316       0.53947368 </v>
   <v>       0.47368421       0.47368421       0.55263158 </v>
   <v>       0.46710526       0.46710526       0.56578947 </v>
   <v>       0.46052632       0.46052632       0.57894737 </v>
   <v>       0.45394737       0.45394737       0.59210526 </v>
   <v>       0.44736842       0.44736842       0.60526316 </v>
   <v>       0.44078947       0.44078947       0.61842105 </v>
   <v>       0.43421053       0.43421053       0.63157895 </v>
   <v>       0.42763158       0.42763158       0.64473684 </v>
   <v>       0.42105263       0.42105263       0.65789474 </v>
   <v>       0.41447368       0.41447368       0.67105263 </v>
   <v>       0.40789474       0.40789474       0.68421053 </v>
   <v>       0.40131579       0.40131579       0.69736842 </v>
   <v>       0.39473684       0.39473684       0.71052632 </v>
   <v>       0.38815789       0.38815789       0.72368421 </v>
   <v>       0.38157895       0.38157895       0.73684211 </v>
   <v>       0.37500000       0.37500000       0.75000000 </v>
   <v>       0.62500000       0.25000000       0.62500000 </v>
   <v>       0.61363636       0.22727273       0.61363636 </v>
   <v>       0.60227273       0.20454545       0.60227273 </v>
   <v>       0.59090909       0.18181818       0.59090909 </v>
   <v>       0.57954545       0.15909091       0.57954545 </v>
   <v>       0.56818182       0.13636364       0.56818182 </v>
   <v>       0.55681818       0.11363636       0.55681818 </v>
   <v>       0.54545455       0.09090909       0.54545455 </v>
   <v>       0.53409091       0.06818182       0.53409091 </v>
   <v>       0.52272727       0.04545455       0.52272727 </v>
   <v>       0.51136364       0.02272727       0.51136364 </v>
   <v>       0.50000000       0.00000000       0.50000000 </v>
  </varray>
  <varray name="weights" >
   <v>       0.00476190 </v>
   <v>       0.00476190 </v>
   <v>       0.00476190 </v>
   <v>       0.00476190 </v>
   <v>       0.00476190 </v>
   <v>       0.00476190 </v>
   <v>       0.00476190 </v>
   <v>       0.00476190 </v>
   <v>       0.00476190 </v>
   <v>       0.00476190 </v>
   <v>       0.00476190 </v>
   <v>       0.00476190 </v>
   <v>       0.00476190 </v>
   <v>       0.00476190 </v>
   <v>       0.00476190 </v>
   <v>       0.00476190 </v>
   <v>       0.00476190 </v>
   <v>       0.00476190 </v>
   <v>       0.00476190 </v>
   <v>       0.00476190 </v>
   <v>       0.00476190 </v>
   <v>       0.00476190 </v>
   <v>       0.00476190 </v>
   <v>       0.00476190 </v>
   <v>       0.00476190 </v>
   <v>       0.00476190 </v>
   <v>       0.00476190 </v>
   <v>       0.00476190 </v>
   <v>       0.00476190 </v>
   <v>       0.00476190 </v>
   <v>       0.00476190 </v>
   <v>       0.00476190 </v>
   <v>       0.00476190 </v>
   <v>       0.00476190 </v>
   <v>       0.00476190 </v>
   <v>       0.00476190 </v>
   <v>       0.00476190 </v>
   <v>       0.00476190 </v>
   <v>       0.00476190 </v>
   <v>       0.00476190 </v>
   <v>       0.00476190 </v>
   <v>       0.00476190 </v>
   <v>       0.00476190 </v>
   <v>       0.00476190 </v>
   <v>       0.00476190 </v>
   <v>       0.00476190 </v>
   <v>       0.00476190 </v>
   <v>       0.00476190 </v>
   <v>       0.00476190 </v>
   <v>       0.00476190 </v>
   <v>       0.00476190 </v>
   <v>       0.00476190 </v>
   <v>       0.00476190 </v>
   <v>       0.00476190 </v>
   <v>       0.00476190 </v>
   <v>       0.00476190 </v>
   <v>       0.00476190 </v>
   <v>       0.00476190 </v>
   <v>       0.00476190 </v>
   <v>       0.00476190 </v>
   <v>       0.00476190 </v>
   <v>       0.00476190 </v>
   <v>       0.00476190 </v>
   <v>       0.00476190 </v>
   <v>       0.00476190 </v>
   <v>       0.00476190 </v>
   <v>       0.00476190 </v>
   <v>       0.00476190 </v>
   <v>       0.00476190 </v>
   <v>       0.00476190 </v>
   <v>       0.00476190 </v>
   <v>       0.00476190 </v>
   <v>       0.00476190 </v>
   <v>       0.00476190 </v>
   <v>       0.00476190 </v>
   <v>       0.00476190 </v>
   <v>       0.00476190 </v>
   <v>       0.00476190 </v>
   <v>       0.00476190 </v>
   <v>       0.00476190 </v>
   <v>       0.00476190 </v>
   <v>       0.00476190 </v>
   <v>       0.00476190 </v>
   <v>       0.00476190 </v>
   <v>       0.00476190 </v>
   <v>       0.00476190 </v>
   <v>       0.00476190 </v>
   <v>       0.00476190 </v>
   <v>       0.00476190 </v>
   <v>       0.00476190 </v>
   <v>       0.00476190 </v>
   <v>       0.00476190 </v>
   <v>       0.00476190 </v>
   <v>       0.00476190 </v>
   <v>       0.00476190 </v>
   <v>       0.00476190 </v>
   <v>       0.00476190 </v>
   <v>       0.00476190 </v>
   <v>       0.00476190 </v>
   <v>       0.00476190 </v>
   <v>       0.00476190 </v>
   <v>       0.00476190 </v>
   <v>       0.00476190 </v>
   <v>       0.00476190 </v>
   <v>       0.00476190 </v>
   <v>       0.00476190 </v>
   <v>       0.00476190 </v>
   <v>       0.00476190 </v>
   <v>       0.00476190 </v>
   <v>       0.00476190 </v>
   <v>       0.00476190 </v>
   <v>       0.00476190 </v>
   <v>       0.00476190 </v>
   <v>       0.00476190 </v>
   <v>       0.00476190 </v>
   <v>       0.00476190 </v>
   <v>       0.00476190 </v>
   <v>       0.00476190 </v>
   <v>       0.00476190 </v>
   <v>       0.00476190 </v>
   <v>       0.00476190 </v>
   <v>       0.00476190 </v>
   <v>       0.00476190 </v>
   <v>       0.00476190 </v>
   <v>       0.00476190 </v>
   <v>       0.00476190 </v>
   <v>       0.00476190 </v>
   <v>       0.00476190 </v>
   <v>       0.00476190 </v>
   <v>       0.00476190 </v>
   <v>       0.00476190 </v>
   <v>       0.00476190 </v>
   <v>       0.00476190 </v>
   <v>       0.00476190 </v>
   <v>       0.00476190 </v>
   <v>       0.00476190 </v>
   <v>       0.00476190 </v>
   <v>       0.00476190 </v>
   <v>       0.00476190 </v>
   <v>       0.00476190 </v>
   <v>       0.00476190 </v>
   <v>       0.00476190 </v>
   <v>       0.00476190 </v>
   <v>       0.00476190 </v>
   <v>       0.00476190 </v>
   <v>       0.00476190 </v>
   <v>       0.00476190 </v>
   <v>       0.00476190 </v>
   <v>       0.00476190 </v>
   <v>       0.00476190 </v>
   <v>       0.00476190 </v>
   <v>       0.00476190 </v>
   <v>       0.00476190 </v>
   <v>       0.00476190 </v>
   <v>       0.00476190 </v>
   <v>       0.00476190 </v>
   <v>       0.00476190 </v>
   <v>       0.00476190 </v>
   <v>       0.00476190 </v>
   <v>       0.00476190 </v>
   <v>       0.00476190 </v>
   <v>       0.00476190 </v>
   <v>       0.00476190 </v>
   <v>       0.00476190 </v>
   <v>       0.00476190 </v>
   <v>       0.00476190 </v>
   <v>       0.00476190 </v>
   <v>       0.00476190 </v>
   <v>       0.00476190 </v>
   <v>       0.00476190 </v>
   <v>       0.00476190 </v>
   <v>       0.00476190 </v>
   <v>       0.00476190 </v>
   <v>       0.00476190 </v>
   <v>       0.00476190 </v>
   <v>       0.00476190 </v>
   <v>       0.00476190 </v>
   <v>       0.00476190 </v>
   <v>       0.00476190 </v>
   <v>       0.00476190 </v>
   <v>       0.00476190 </v>
   <v>       0.00476190 </v>
   <v>       0.00476190 </v>
   <v>       0.00476190 </v>
   <v>       0.00476190 </v>
   <v>       0.00476190 </v>
   <v>       0.00476190 </v>
   <v>       0.00476190 </v>
   <v>       0.00476190 </v>
   <v>       0.00476190 </v>
   <v>       0.00476190 </v>
   <v>       0.00476190 </v>
   <v>       0.00476190 </v>
   <v>       0.00476190 </v>
   <v>       0.00476190 </v>
   <v>       0.00476190 </v>
   <v>       0.00476190 </v>
   <v>       0.00476190 </v>
   <v>       0.00476190 </v>
   <v>       0.00476190 </v>
   <v>       0.00476190 </v>
   <v>       0.00476190 </v>
   <v>       0.00476190 </v>
   <v>       0.00476190 </v>
   <v>       0.00476190 </v>
   <v>       0.00476190 </v>
   <v>       0.00476190 </v>
   <v>       0.00476190 </v>
   <v>       0.00476190 </v>
   <v>       0.00476190 </v>
  </varray>
 </kpoints>
 <parameters>
  <separator name="general" >
   <i type="string" name="SYSTEM">unknown system</i>
   <i type="logical" name="LCOMPAT"> F  </i>
  </separator>
  <separator name="electronic" >
   <i type="string" name="PREC">accura</i>
   <i name="ENMAX">    500.00000000</i>
   <i name="ENAUG">    291.05200000</i>
   <i name="EDIFF">      0.00000010</i>
   <i type="int" name="IALGO">    38</i>
   <i type="int" name="IWAVPR">    10</i>
   <i type="int" name="NBANDS">    20</i>
   <i name="NELECT">      3.00000000</i>
   <i type="int" name="TURBO">     0</i>
   <i type="int" name="IRESTART">     0</i>
   <i type="int" name="NREBOOT">     0</i>
   <i type="int" name="NMIN">     0</i>
   <i name="EREF">      0.00000000</i>
   <separator name="electronic smearing" >
    <i type="int" name="ISMEAR">     0</i>
    <i name="SIGMA">      0.20000000</i>
    <i name="KSPACING">      0.50000000</i>
    <i type="logical" name="KGAMMA"> T  </i>
   </separator>
   <separator name="electronic projectors" >
    <i type="logical" name="LREAL"> F  </i>
    <v name="ROPT">      0.00000000</v>
    <i type="int" name="LMAXPAW">  -100</i>
    <i type="int" name="LMAXMIX">     2</i>
    <i type="logical" name="NLSPLINE"> F  </i>
   </separator>
   <separator name="electronic startup" >
    <i type="int" name="ISTART">     0</i>
    <i type="int" name="ICHARG">     2</i>
    <i type="int" name="INIWAV">     1</i>
   </separator>
   <separator name="electronic spin" >
    <i type="int" name="ISPIN">     2</i>
    <i type="logical" name="LNONCOLLINEAR"> F  </i>
    <v name="MAGMOM">      1.00000000</v>
    <i name="NUPDOWN">     -1.00000000</i>
    <i type="logical" name="LSORBIT"> F  </i>
    <v name="SAXIS">      0.00000000      0.00000000      1.00000000</v>
    <i type="logical" name="LSPIRAL"> F  </i>
    <v name="QSPIRAL">      0.00000000      0.00000000      0.00000000</v>
    <i type="logical" name="LZEROZ"> F  </i>
   </separator>
   <separator name="electronic exchange-correlation" >
    <i type="logical" name="LASPH"> F  </i>
    <i type="logical" name="LMETAGGA"> F  </i>
   </separator>
   <separator name="electronic convergence" >
    <i type="int" name="NELM">   400</i>
    <i type="int" name="NELMDL">    -5</i>
    <i type="int" name="NELMIN">     2</i>
    <i name="ENINI">    500.00000000</i>
    <separator name="electronic convergence detail" >
     <i type="logical" name="LDIAG"> T  </i>
     <i type="logical" name="LSUBROT"> F  </i>
     <i name="WEIMIN">      0.00000000</i>
     <i name="EBREAK">      0.00000000</i>
     <i name="DEPER">      0.30000000</i>
     <i type="int" name="NRMM">     4</i>
     <i name="TIME">      0.40000000</i>
    </separator>
   </separator>
   <separator name="electronic mixer" >
    <i name="AMIX">      0.40000000</i>
    <i name="BMIX">      1.00000000</i>
    <i name="AMIN">      0.10000000</i>
    <i name="AMIX_MAG">      1.60000000</i>
    <i name="BMIX_MAG">      1.00000000</i>
    <separator name="electronic mixer details" >
     <i type="int" name="IMIX">     4</i>
     <i type="logical" name="MIXFIRST"> F  </i>
     <i type="int" name="MAXMIX">   -45</i>
     <i name="WC">    100.00000000</i>
     <i type="int" name="INIMIX">     1</i>
     <i type="int" name="MIXPRE">     1</i>
     <i type="int" name="MREMOVE">     5</i>
    </separator>
   </separator>
   <separator name="electronic dipolcorrection" >
    <i type="logical" name="LDIPOL"> F  </i>
    <i type="logical" name="LMONO"> F  </i>
    <i type="int" name="IDIPOL">     0</i>
    <i name="EPSILON">      1.00000000</i>
    <v name="DIPOL">   -100.00000000   -100.00000000   -100.00000000</v>
    <i name="EFIELD">      0.00000000</i>
   </separator>
  </separator>
  <separator name="grids" >
   <i type="int" name="NGX">    24</i>
   <i type="int" name="NGY">    24</i>
   <i type="int" name="NGZ">    24</i>
   <i type="int" name="NGXF">    48</i>
   <i type="int" name="NGYF">    48</i>
   <i type="int" name="NGZF">    48</i>
   <i type="logical" name="ADDGRID"> F  </i>
  </separator>
  <separator name="ionic" >
   <i type="int" name="NSW">     0</i>
   <i type="int" name="IBRION">    -1</i>
   <i type="int" name="ISIF">     2</i>
   <i name="PSTRESS">      0.00000000</i>
   <i name="EDIFFG">      0.00000100</i>
   <i type="int" name="NFREE">     0</i>
   <i name="POTIM">      0.50000000</i>
   <i name="SMASS">     -3.00000000</i>
   <i name="SCALEE">      1.00000000</i>
  </separator>
  <separator name="ionic md" >
   <i name="TEBEG">      0.00010000</i>
   <i name="TEEND">      0.00010000</i>
   <i type="int" name="NBLOCK">     1</i>
   <i type="int" name="KBLOCK">     1</i>
   <i type="int" name="NPACO">   256</i>
   <i name="APACO">     16.00000000</i>
  </separator>
  <separator name="symmetry" >
   <i type="int" name="ISYM">     2</i>
   <i name="SYMPREC">      0.00001000</i>
  </separator>
  <separator name="dos" >
   <i type="logical" name="LORBIT"> T  </i>
   <v name="RWIGS">     -1.00000000</v>
   <i type="int" name="NEDOS">  5000</i>
   <i name="EMIN">     10.00000000</i>
   <i name="EMAX">    -10.00000000</i>
   <i name="EFERMI">      0.00000000</i>
  </separator>
  <separator name="writing" >
   <i type="int" name="NWRITE">     2</i>
   <i type="logical" name="LWAVE"> F  </i>
   <i type="logical" name="LCHARG"> F  </i>
   <i type="logical" name="LPARD"> F  </i>
   <i type="logical" name="LVTOT"> F  </i>
   <i type="logical" name="LVHAR"> F  </i>
   <i type="logical" name="LELF"> F  </i>
   <i type="logical" name="LOPTICS"> F  </i>
   <v name="STM">      0.00000000      0.00000000      0.00000000      0.00000000      0.00000000      0.00000000      0.00000000</v>
  </separator>
  <separator name="performance" >
   <i type="int" name="NPAR">     4</i>
   <i type="int" name="NSIM">     4</i>
   <i type="int" name="NBLK">    -1</i>
   <i type="logical" name="LPLANE"> T  </i>
   <i type="logical" name="LSCALAPACK"> T  </i>
   <i type="logical" name="LSCAAWARE"> F  </i>
   <i type="logical" name="LSCALU"> F  </i>
   <i type="logical" name="LASYNC"> F  </i>
   <i type="logical" name="LORBITALREAL"> F  </i>
  </separator>
  <separator name="miscellaneous" >
   <i type="int" name="IDIOT">     3</i>
   <i type="logical" name="LMUSIC"> F  </i>
   <v name="POMASS">     26.98100000</v>
   <v name="DARWINR">      0.00000000</v>
   <v name="DARWINV">      1.00000000</v>
   <i type="logical" name="LCORR"> T  </i>
  </separator>
  <i type="logical" name="GGA_COMPAT"> T  </i>
  <i type="logical" name="LBERRY"> F  </i>
  <i type="int" name="ICORELEVEL">     0</i>
  <i type="logical" name="LDAU"> F  </i>
  <i type="int" name="I_CONSTRAINED_M">     0</i>
  <separator name="electronic exchange-correlation" >
   <i type="string" name="GGA">BO</i>
   <i type="int" name="VOSKOWN">     0</i>
   <i type="logical" name="LHFCALC"> F  </i>
   <i type="string" name="PRECFOCK"></i>
   <i type="logical" name="LSYMGRAD"> F  </i>
   <i type="logical" name="LHFONE"> F  </i>
   <i type="logical" name="LRHFCALC"> F  </i>
   <i type="logical" name="LTHOMAS"> F  </i>
   <i type="logical" name="LMODELHF"> F  </i>
   <i name="ENCUT4O">     -1.00000000</i>
   <i type="int" name="EXXOEP">     0</i>
   <i type="int" name="FOURORBIT">     0</i>
   <i name="AEXX">      0.00000000</i>
   <i name="HFALPHA">      0.00000000</i>
   <i name="MCALPHA">      0.00000000</i>
   <i name="ALDAX">      1.00000000</i>
   <i name="AGGAX">      1.00000000</i>
   <i name="ALDAC">      1.00000000</i>
   <i name="AGGAC">      0.00000000</i>
   <i type="int" name="NKREDX">     1</i>
   <i type="int" name="NKREDY">     1</i>
   <i type="int" name="NKREDZ">     1</i>
   <i type="logical" name="SHIFTRED"> F  </i>
   <i type="logical" name="ODDONLY"> F  </i>
   <i type="logical" name="EVENONLY"> F  </i>
   <i type="int" name="LMAXFOCK">     0</i>
   <i type="int" name="NMAXFOCKAE">     0</i>
   <i type="logical" name="LFOCKAEDFT"> F  </i>
   <i name="HFSCREEN">      0.00000000</i>
   <i name="HFSCREENC">      0.00000000</i>
   <i type="int" name="NBANDSGWLOW">     0</i>
  </separator>
  <separator name="vdW DFT" >
   <i type="logical" name="LUSE_VDW"> T  </i>
   <i name="Zab_VDW">     -0.84910000</i>
   <i name="PARAM1">      0.18333333</i>
   <i name="PARAM2">      0.22000000</i>
   <i name="PARAM3">      0.00000000</i>
  </separator>
  <separator name="model GW" >
   <i type="int" name="MODEL_GW">     0</i>
   <i name="MODEL_EPS0">     10.09358430</i>
   <i name="MODEL_ALPHA">      1.00000000</i>
  </separator>
  <separator name="linear response parameters" >
   <i type="logical" name="LEPSILON"> F  </i>
   <i type="logical" name="LRPA"> F  </i>
   <i type="logical" name="LNABLA"> F  </i>
   <i type="logical" name="LVEL"> F  </i>
   <i type="int" name="KINTER">     0</i>
   <i name="CSHIFT">      0.10000000</i>
   <i name="OMEGAMAX">     -1.00000000</i>
   <i name="DEG_THRESHOLD">      0.00200000</i>
  </separator>
  <separator name="orbital magnetization" >
   <i type="logical" name="NUCIND"> F  </i>
   <v name="MAGPOS">      0.00000000      0.00000000      0.00000000</v>
   <i type="logical" name="LNICSALL"> T  </i>
   <i type="logical" name="ORBITALMAG"> F  </i>
   <i type="logical" name="LMAGBLOCH"> F  </i>
   <i type="logical" name="LCHIMAG"> F  </i>
   <i type="logical" name="LGAUGE"> T  </i>
   <i type="int" name="MAGATOM">     0</i>
   <v name="MAGDIPOL">      0.00000000      0.00000000      0.00000000</v>
   <v name="AVECCONST">      0.00000000      0.00000000      0.00000000</v>
  </separator>
  <separator name="response functions" >
   <i type="logical" name="LADDER"> F  </i>
   <i type="logical" name="LFXC"> F  </i>
   <i type="logical" name="LHARTREE"> T  </i>
   <i type="int" name="IBSE">     0</i>
   <v type="int" name="KPOINT">    -1     0     0     0</v>
   <i type="logical" name="LTCTE"> F  </i>
   <i type="logical" name="LTETE"> F  </i>
   <i type="logical" name="LTRIPLET"> F  </i>
   <i type="logical" name="LFXCEPS"> F  </i>
   <i type="logical" name="LFXHEG"> F  </i>
   <i type="int" name="NATURALO">     0</i>
   <i type="logical" name="L2ORDER"> F  </i>
   <i type="logical" name="LUSEW"> F  </i>
   <i name="ENCUTGW">     -2.00000000</i>
   <i name="ENCUTGWSOFT">     -2.00000000</i>
   <i name="ENCUTLF">     -1.00000000</i>
   <i type="int" name="LMAXMP2">    -1</i>
   <i name="SCISSOR">      0.00000000</i>
   <i type="int" name="NOMEGA">     0</i>
   <i type="int" name="NOMEGAR">     0</i>
   <i type="int" name="NBANDSGW">    -1</i>
   <i type="int" name="NBANDSO">    -1</i>
   <i type="int" name="NBANDSV">    -1</i>
   <i type="int" name="NELM">   400</i>
   <i type="int" name="NELMHF">     1</i>
   <i type="int" name="DIM">     3</i>
   <i type="int" name="ANTIRES">     0</i>
   <i name="OMEGAMAX">    -30.00000000</i>
   <i name="OMEGAMIN">    -30.00000000</i>
   <i name="OMEGATL">   -200.00000000</i>
   <i type="int" name="OMEGAGRID">     0</i>
   <i name="CSHIFT">     -0.10000000</i>
   <i type="logical" name="SELFENERGY"> F  </i>
   <i type="logical" name="LSPECTRAL"> F  </i>
   <i type="logical" name="LSPECTRALGW"> F  </i>
   <i type="logical" name="LSINGLES"> F  </i>
   <i type="logical" name="LFERMIGW"> F  </i>
   <i type="logical" name="ODDONLYGW"> F  </i>
   <i type="logical" name="EVENONLYGW"> F  </i>
   <i type="int" name="NKREDLFX">     1</i>
   <i type="int" name="NKREDLFY">     1</i>
   <i type="int" name="NKREDLFZ">     1</i>
   <i type="int" name="MAXMEM">  1800</i>
   <i type="int" name="TELESCOPE">     0</i>
   <i type="int" name="TAUPAR">     1</i>
   <i type="int" name="OMEGAPAR">    -1</i>
   <i name="LAMBDA">      1.00000000</i>
  </separator>
  <separator name="External order field" >
   <i name="OFIELD_KAPPA">      0.00000000</i>
   <v name="OFIELD_K">      0.00000000      0.00000000      0.00000000</v>
   <i name="OFIELD_Q6_NEAR">      0.00000000</i>
   <i name="OFIELD_Q6_FAR">      0.00000000</i>
   <i name="OFIELD_A">      0.00000000</i>
  </separator>
 </parameters>
 <atominfo>
  <atoms>       1 </atoms>
  <types>       1 </types>
  <array name="atoms" >
   <dimension dim="1">ion</dimension>
   <field type="string">element</field>
   <field type="int">atomtype</field>
   <set>
    <rc><c>Al</c><c>   1</c></rc>
   </set>
  </array>
  <array name="atomtypes" >
   <dimension dim="1">type</dimension>
   <field type="int">atomspertype</field>
   <field type="string">element</field>
   <field>mass</field>
   <field>valence</field>
   <field type="string">pseudopotential</field>
   <set>
    <rc><c>   1</c><c>Al</c><c>     26.98100000</c><c>      3.00000000</c><c>  PAW_PBE Al 04Jan2001                  </c></rc>
   </set>
  </array>
 </atominfo>
 <structure name="initialpos" >
  <crystal>
   <varray name="basis" >
    <v>       2.49077000      -0.00000000       1.43804700 </v>
    <v>       0.83025700       2.34832100       1.43804700 </v>
    <v>      -0.00000000      -0.00000000       2.87609400 </v>
   </varray>
   <i name="volume">     16.82264050 </i>
   <varray name="rec_basis" >
    <v>       0.40148227      -0.14194544       0.00000000 </v>
    <v>       0.00000000       0.42583616       0.00000000 </v>
    <v>      -0.20074114      -0.14194536       0.34769378 </v>
   </varray>
  </crystal>
  <varray name="positions" >
   <v>       0.00000000       0.00000000       0.00000000 </v>
  </varray>
 </structure>
 <calculation>
  <scstep>
   <time name="dav">    9.77    9.77</time>
   <time name="total">   14.06   14.12</time>
   <energy>
    <i name="alphaZ">     -0.19966009 </i>
    <i name="ewald">    -73.04269866 </i>
    <i name="hartreedc">     -0.10902240 </i>
    <i name="XCdc">    -26.92784474 </i>
    <i name="pawpsdc">     71.19088396 </i>
    <i name="pawaedc">    -37.99710770 </i>
    <i name="eentropy">     -0.01134907 </i>
    <i name="bandstr">     16.08487655 </i>
    <i name="atom">     54.40570287 </i>
    <i name="e_fr_energy">      3.39378072 </i>
    <i name="e_wo_entrp">      3.40512980 </i>
    <i name="e_0_energy">      3.39945526 </i>
   </energy>
  </scstep>
  <scstep>
   <time name="dav">   12.70   12.70</time>
   <time name="total">   12.80   13.15</time>
   <energy>
    <i name="e_fr_energy">     -1.77528764 </i>
    <i name="e_wo_entrp">     -1.76033077 </i>
    <i name="e_0_energy">     -1.76780921 </i>
   </energy>
  </scstep>
  <scstep>
   <time name="dav">   12.32   12.38</time>
   <time name="total">   12.43   12.81</time>
   <energy>
    <i name="e_fr_energy">     -1.82951686 </i>
    <i name="e_wo_entrp">     -1.81458604 </i>
    <i name="e_0_energy">     -1.82205145 </i>
   </energy>
  </scstep>
  <scstep>
   <time name="dav">   12.53   12.54</time>
   <time name="total">   12.64   12.88</time>
   <energy>
    <i name="e_fr_energy">     -1.82961172 </i>
    <i name="e_wo_entrp">     -1.81468116 </i>
    <i name="e_0_energy">     -1.82214644 </i>
   </energy>
  </scstep>
  <scstep>
   <time name="dav">   12.16   12.21</time>
   <time name="total">   12.48   12.95</time>
   <energy>
    <i name="e_fr_energy">     -1.82961197 </i>
    <i name="e_wo_entrp">     -1.81468141 </i>
    <i name="e_0_energy">     -1.82214669 </i>
   </energy>
  </scstep>
  <scstep>
   <time name="dav">   14.90   14.90</time>
   <time name="total">   17.79   18.02</time>
   <energy>
    <i name="e_fr_energy">     -1.98697663 </i>
    <i name="e_wo_entrp">     -1.97183570 </i>
    <i name="e_0_energy">     -1.97940616 </i>
   </energy>
  </scstep>
  <scstep>
   <time name="dav">   13.14   13.20</time>
   <time name="total">   15.54   15.83</time>
   <energy>
    <i name="e_fr_energy">     -1.97986146 </i>
    <i name="e_wo_entrp">     -1.96408455 </i>
    <i name="e_0_energy">     -1.97197301 </i>
   </energy>
  </scstep>
  <scstep>
   <time name="dav">   13.34   13.33</time>
   <time name="total">   15.84   15.94</time>
   <energy>
    <i name="e_fr_energy">     -1.97737726 </i>
    <i name="e_wo_entrp">     -1.96147897 </i>
    <i name="e_0_energy">     -1.96942812 </i>
   </energy>
  </scstep>
  <scstep>
   <time name="dav">   13.14   13.28</time>
   <time name="total">   15.61   15.92</time>
   <energy>
    <i name="e_fr_energy">     -1.97807263 </i>
    <i name="e_wo_entrp">     -1.96212906 </i>
    <i name="e_0_energy">     -1.97010085 </i>
   </energy>
  </scstep>
  <scstep>
   <time name="dav">   13.71   13.72</time>
   <time name="total">   16.22   16.37</time>
   <energy>
    <i name="e_fr_energy">     -1.97834899 </i>
    <i name="e_wo_entrp">     -1.96239364 </i>
    <i name="e_0_energy">     -1.97037131 </i>
   </energy>
  </scstep>
  <scstep>
   <time name="dav">   11.94   11.94</time>
   <time name="total">   14.44   14.85</time>
   <energy>
    <i name="e_fr_energy">     -1.97863447 </i>
    <i name="e_wo_entrp">     -1.96267246 </i>
    <i name="e_0_energy">     -1.97065347 </i>
   </energy>
  </scstep>
  <scstep>
   <time name="dav">   11.90   11.90</time>
   <time name="total">   14.37   14.53</time>
   <energy>
    <i name="e_fr_energy">     -1.97871868 </i>
    <i name="e_wo_entrp">     -1.96275613 </i>
    <i name="e_0_energy">     -1.97073741 </i>
   </energy>
  </scstep>
  <scstep>
   <time name="dav">   12.20   12.28</time>
   <time name="total">   14.66   14.94</time>
   <energy>
    <i name="e_fr_energy">     -1.97873170 </i>
    <i name="e_wo_entrp">     -1.96276942 </i>
    <i name="e_0_energy">     -1.97075056 </i>
   </energy>
  </scstep>
  <scstep>
   <time name="dav">   11.86   11.86</time>
   <time name="total">   14.32   14.56</time>
   <energy>
    <i name="e_fr_energy">     -1.97871861 </i>
    <i name="e_wo_entrp">     -1.96275633 </i>
    <i name="e_0_energy">     -1.97073747 </i>
   </energy>
  </scstep>
  <scstep>
   <time name="dav">    9.77    9.77</time>
   <time name="total">   12.25   12.54</time>
   <energy>
    <i name="e_fr_energy">     -1.97870344 </i>
    <i name="e_wo_entrp">     -1.96274101 </i>
    <i name="e_0_energy">     -1.97072223 </i>
   </energy>
  </scstep>
  <scstep>
   <time name="dav">    8.59    8.63</time>
   <time name="total">   11.06   11.50</time>
   <energy>
    <i name="e_fr_energy">     -1.97870139 </i>
    <i name="e_wo_entrp">     -1.96273896 </i>
    <i name="e_0_energy">     -1.97072018 </i>
   </energy>
  </scstep>
  <scstep>
   <time name="dav">    8.03    8.03</time>
   <time name="total">   10.67   10.86</time>
   <energy>
    <i name="e_fr_energy">     -1.97870189 </i>
    <i name="e_wo_entrp">     -1.96273947 </i>
    <i name="e_0_energy">     -1.97072068 </i>
   </energy>
  </scstep>
  <scstep>
   <time name="dav">    8.54    8.54</time>
   <time name="total">   11.01   11.17</time>
   <energy>
    <i name="e_fr_energy">     -1.97870168 </i>
    <i name="e_wo_entrp">     -1.96273926 </i>
    <i name="e_0_energy">     -1.97072047 </i>
   </energy>
  </scstep>
  <scstep>
   <time name="dav">    7.86    7.86</time>
   <time name="total">   10.36   10.58</time>
   <energy>
    <i name="e_fr_energy">     -1.97870151 </i>
    <i name="e_wo_entrp">     -1.96273909 </i>
    <i name="e_0_energy">     -1.97072030 </i>
   </energy>
  </scstep>
  <scstep>
   <time name="dav">    8.11    8.23</time>
   <time name="total">   10.34   10.68</time>
   <energy>
    <i name="alphaZ">     -0.19966009 </i>
    <i name="ewald">    -73.04269866 </i>
    <i name="hartreedc">     -0.12683162 </i>
    <i name="XCdc">    -26.90694982 </i>
    <i name="pawpsdc">     78.20887300 </i>
    <i name="pawaedc">    -44.99342176 </i>
    <i name="eentropy">     -0.01596242 </i>
    <i name="bandstr">     10.69224697 </i>
    <i name="atom">     54.40570287 </i>
    <i name="e_fr_energy">     -1.97870152 </i>
    <i name="e_wo_entrp">     -1.96273910 </i>
    <i name="e_0_energy">     -1.97072031 </i>
   </energy>
  </scstep>
  <structure>
   <crystal>
    <varray name="basis" >
     <v>       2.49077000      -0.00000000       1.43804700 </v>
     <v>       0.83025700       2.34832100       1.43804700 </v>
     <v>      -0.00000000      -0.00000000       2.87609400 </v>
    </varray>
    <i name="volume">     16.82264050 </i>
    <varray name="rec_basis" >
     <v>       0.40148227      -0.14194544       0.00000000 </v>
     <v>       0.00000000       0.42583616       0.00000000 </v>
     <v>      -0.20074114      -0.14194536       0.34769378 </v>
    </varray>
   </crystal>
   <varray name="positions" >
    <v>       0.00000000       0.00000000       0.00000000 </v>
   </varray>
  </structure>
  <varray name="forces" >
   <v>       0.00000000       0.00000000      -0.00000000 </v>
  </varray>
  <varray name="stress" >
   <v>     -12.88271245      -0.00000183      -0.00000000 </v>
   <v>      -0.00000183     -12.88271820      -0.00000000 </v>
   <v>       0.00000000       0.00000000     -12.88271729 </v>
  </varray>
  <energy>
   <i name="e_fr_energy">     -1.97870152 </i>
   <i name="e_wo_entrp">     -1.97072031 </i>
   <i name="e_0_energy">     -0.01596242 </i>
  </energy>
  <time name="totalsc">  274.24  280.00</time>
  <eigenvalues>
   <array>
    <dimension dim="1">band</dimension>
    <dimension dim="2">kpoint</dimension>
    <dimension dim="3">spin</dimension>
    <field>eigene</field>
    <field>occ</field>
    <set>
     <set comment="spin 1">
      <set comment="kpoint 1">
       <r>   -3.1361    1.0000 </r>
       <r>   20.2308    0.0000 </r>
       <r>   20.2308    0.0000 </r>
       <r>   20.2308    0.0000 </r>
       <r>   21.6367    0.0000 </r>
       <r>   21.6367    0.0000 </r>
       <r>   21.6367    0.0000 </r>
       <r>   24.1199    0.0000 </r>
       <r>   26.9102    0.0000 </r>
       <r>   26.9102    0.0000 </r>
       <r>   30.1221    0.0000 </r>
       <r>   32.1879    0.0000 </r>
       <r>   32.1879    0.0000 </r>
       <r>   32.1879    0.0000 </r>
       <r>   40.2314    0.0000 </r>
       <r>   55.0398    0.0000 </r>
       <r>   55.4267    0.0000 </r>
       <r>   55.4267    0.0000 </r>
       <r>   55.4267    0.0000 </r>
       <r>   58.4656    0.0000 </r>
      </set>
      <set comment="kpoint 2">
       <r>   -3.1268    1.0000 </r>
       <r>   20.0873    0.0000 </r>
       <r>   20.0873    0.0000 </r>
       <r>   20.1550    0.0000 </r>
       <r>   21.6142    0.0000 </r>
       <r>   21.7936    0.0000 </r>
       <r>   21.7936    0.0000 </r>
       <r>   24.2142    0.0000 </r>
       <r>   26.7844    0.0000 </r>
       <r>   26.9188    0.0000 </r>
       <r>   30.0838    0.0000 </r>
       <r>   32.1987    0.0000 </r>
       <r>   32.1987    0.0000 </r>
       <r>   32.3689    0.0000 </r>
       <r>   40.2714    0.0000 </r>
       <r>   55.0056    0.0000 </r>
       <r>   55.4079    0.0000 </r>
       <r>   55.4079    0.0000 </r>
       <r>   55.4565    0.0000 </r>
       <r>   58.3807    0.0000 </r>
      </set>
      <set comment="kpoint 3">
       <r>   -3.0989    1.0000 </r>
       <r>   19.7656    0.0000 </r>
       <r>   19.7656    0.0000 </r>
       <r>   19.9467    0.0000 </r>
       <r>   21.5478    0.0000 </r>
       <r>   22.1555    0.0000 </r>
       <r>   22.1555    0.0000 </r>
       <r>   24.4782    0.0000 </r>
       <r>   26.4259    0.0000 </r>
       <r>   26.9446    0.0000 </r>
       <r>   30.0350    0.0000 </r>
       <r>   32.2313    0.0000 </r>
       <r>   32.2313    0.0000 </r>
       <r>   32.8248    0.0000 </r>
       <r>   40.3926    0.0000 </r>
       <r>   54.9221    0.0000 </r>
       <r>   55.3471    0.0000 </r>
       <r>   55.3471    0.0000 </r>
       <r>   55.5265    0.0000 </r>
       <r>   58.1198    0.0000 </r>
      </set>
      <set comment="kpoint 4">
       <r>   -3.0525    1.0000 </r>
       <r>   19.3842    0.0000 </r>
       <r>   19.3842    0.0000 </r>
       <r>   19.6466    0.0000 </r>
       <r>   21.4405    0.0000 </r>
       <r>   22.6036    0.0000 </r>
       <r>   22.6036    0.0000 </r>
       <r>   24.8712    0.0000 </r>
       <r>   25.8849    0.0000 </r>
       <r>   26.9876    0.0000 </r>
       <r>   30.0538    0.0000 </r>
       <r>   32.2858    0.0000 </r>
       <r>   32.2858    0.0000 </r>
       <r>   33.4205    0.0000 </r>
       <r>   40.5985    0.0000 </r>
       <r>   54.7948    0.0000 </r>
       <r>   55.2218    0.0000 </r>
       <r>   55.2218    0.0000 </r>
       <r>   55.6009    0.0000 </r>
       <r>   57.7712    0.0000 </r>
      </set>
      <set comment="kpoint 5">
       <r>   -2.9875    1.0000 </r>
       <r>   18.9879    0.0000 </r>
       <r>   18.9879    0.0000 </r>
       <r>   19.2924    0.0000 </r>
       <r>   21.2971    0.0000 </r>
       <r>   23.0925    0.0000 </r>
       <r>   23.0925    0.0000 </r>
       <r>   25.2211    0.0000 </r>
       <r>   25.3555    0.0000 </r>
       <r>   27.0476    0.0000 </r>
       <r>   30.1556    0.0000 </r>
       <r>   32.3628    0.0000 </r>
       <r>   32.3628    0.0000 </r>
       <r>   34.0709    0.0000 </r>
       <r>   40.8940    0.0000 </r>
       <r>   54.6567    0.0000 </r>
       <r>   55.0098    0.0000 </r>
       <r>   55.0098    0.0000 </r>
       <r>   55.6897    0.0000 </r>
       <r>   57.3999    0.0000 </r>
      </set>
      <set comment="kpoint 6">
       <r>   -2.9040    1.0000 </r>
       <r>   18.5926    0.0000 </r>
       <r>   18.5926    0.0000 </r>
       <r>   18.9100    0.0000 </r>
       <r>   21.1227    0.0000 </r>
       <r>   23.6056    0.0000 </r>
       <r>   23.6056    0.0000 </r>
       <r>   24.4821    0.0000 </r>
       <r>   25.9050    0.0000 </r>
       <r>   27.1248    0.0000 </r>
       <r>   30.3286    0.0000 </r>
       <r>   32.4630    0.0000 </r>
       <r>   32.4630    0.0000 </r>
       <r>   34.7289    0.0000 </r>
       <r>   41.2847    0.0000 </r>
       <r>   54.5204    0.0000 </r>
       <r>   54.7060    0.0000 </r>
       <r>   54.7060    0.0000 </r>
       <r>   55.7823    0.0000 </r>
       <r>   57.0698    0.0000 </r>
      </set>
      <set comment="kpoint 7">
       <r>   -2.8020    1.0000 </r>
       <r>   18.2050    0.0000 </r>
       <r>   18.2050    0.0000 </r>
       <r>   18.5160    0.0000 </r>
       <r>   20.9229    0.0000 </r>
       <r>   23.6996    0.0000 </r>
       <r>   24.1351    0.0000 </r>
       <r>   24.1351    0.0000 </r>
       <r>   26.5033    0.0000 </r>
       <r>   27.2190    0.0000 </r>
       <r>   30.5578    0.0000 </r>
       <r>   32.5871    0.0000 </r>
       <r>   32.5871    0.0000 </r>
       <r>   35.3671    0.0000 </r>
       <r>   41.7746    0.0000 </r>
       <r>   54.2850    0.0000 </r>
       <r>   54.2850    0.0000 </r>
       <r>   54.3758    0.0000 </r>
       <r>   55.8745    0.0000 </r>
       <r>   56.7935    0.0000 </r>
      </set>
      <set comment="kpoint 8">
       <r>   -2.6816    1.0000 </r>
       <r>   17.8283    0.0000 </r>
       <r>   17.8283    0.0000 </r>
       <r>   18.1202    0.0000 </r>
       <r>   20.7028    0.0000 </r>
       <r>   22.8936    0.0000 </r>
       <r>   24.6766    0.0000 </r>
       <r>   24.6766    0.0000 </r>
       <r>   27.1405    0.0000 </r>
       <r>   27.3300    0.0000 </r>
       <r>   30.8313    0.0000 </r>
       <r>   32.7363    0.0000 </r>
       <r>   32.7363    0.0000 </r>
       <r>   35.9706    0.0000 </r>
       <r>   42.3648    0.0000 </r>
       <r>   53.7621    0.0000 </r>
       <r>   53.7621    0.0000 </r>
       <r>   54.2234    0.0000 </r>
       <r>   55.8148    0.0000 </r>
       <r>   55.9658    0.0000 </r>
      </set>
      <set comment="kpoint 9">
       <r>   -2.5427    1.0000 </r>
       <r>   17.4642    0.0000 </r>
       <r>   17.4642    0.0000 </r>
       <r>   17.7290    0.0000 </r>
       <r>   20.4663    0.0000 </r>
       <r>   22.0775    0.0000 </r>
       <r>   25.2267    0.0000 </r>
       <r>   25.2267    0.0000 </r>
       <r>   27.4578    0.0000 </r>
       <r>   27.8102    0.0000 </r>
       <r>   31.1404    0.0000 </r>
       <r>   32.9121    0.0000 </r>
       <r>   32.9121    0.0000 </r>
       <r>   36.5333    0.0000 </r>
       <r>   43.0520    0.0000 </r>
       <r>   53.1675    0.0000 </r>
       <r>   53.1675    0.0000 </r>
       <r>   54.0639    0.0000 </r>
       <r>   54.8506    0.0000 </r>
       <r>   56.0703    0.0000 </r>
      </set>
      <set comment="kpoint 10">
       <r>   -2.3856    1.0000 </r>
       <r>   17.1138    0.0000 </r>
       <r>   17.1138    0.0000 </r>
       <r>   17.3462    0.0000 </r>
       <r>   20.2139    0.0000 </r>
       <r>   21.2628    0.0000 </r>
       <r>   25.7824    0.0000 </r>
       <r>   25.7824    0.0000 </r>
       <r>   27.6022    0.0000 </r>
       <r>   28.5084    0.0000 </r>
       <r>   31.4785    0.0000 </r>
       <r>   33.1160    0.0000 </r>
       <r>   33.1160    0.0000 </r>
       <r>   37.0561    0.0000 </r>
       <r>   43.8288    0.0000 </r>
       <r>   52.5244    0.0000 </r>
       <r>   52.5244    0.0000 </r>
       <r>   53.8917    0.0000 </r>
       <r>   53.9021    0.0000 </r>
       <r>   56.1957    0.0000 </r>
      </set>
      <set comment="kpoint 11">
       <r>   -2.2101    1.0000 </r>
       <r>   16.7778    0.0000 </r>
       <r>   16.7778    0.0000 </r>
       <r>   16.9748    0.0000 </r>
       <r>   19.9304    0.0000 </r>
       <r>   20.4739    0.0000 </r>
       <r>   26.3407    0.0000 </r>
       <r>   26.3407    0.0000 </r>
       <r>   27.7630    0.0000 </r>
       <r>   29.2323    0.0000 </r>
       <r>   31.8404    0.0000 </r>
       <r>   33.3502    0.0000 </r>
       <r>   33.3502    0.0000 </r>
       <r>   37.5439    0.0000 </r>
       <r>   44.6817    0.0000 </r>
       <r>   51.8588    0.0000 </r>
       <r>   51.8588    0.0000 </r>
       <r>   52.9703    0.0000 </r>
       <r>   53.6923    0.0000 </r>
       <r>   56.3733    0.0000 </r>
      </set>
      <set comment="kpoint 12">
       <r>   -2.0164    1.0000 </r>
       <r>   16.4566    0.0000 </r>
       <r>   16.4566    0.0000 </r>
       <r>   16.6165    0.0000 </r>
       <r>   19.4664    0.0000 </r>
       <r>   19.8672    0.0000 </r>
       <r>   26.8985    0.0000 </r>
       <r>   26.8985    0.0000 </r>
       <r>   27.9400    0.0000 </r>
       <r>   29.9801    0.0000 </r>
       <r>   32.2227    0.0000 </r>
       <r>   33.6167    0.0000 </r>
       <r>   33.6167    0.0000 </r>
       <r>   38.0037    0.0000 </r>
       <r>   45.5996    0.0000 </r>
       <r>   51.1839    0.0000 </r>
       <r>   51.1839    0.0000 </r>
       <r>   52.0566    0.0000 </r>
       <r>   53.5061    0.0000 </r>
       <r>   56.3247    0.0000 </r>
      </set>
      <set comment="kpoint 13">
       <r>   -1.8046    1.0000 </r>
       <r>   16.1504    0.0000 </r>
       <r>   16.1504    0.0000 </r>
       <r>   16.2725    0.0000 </r>
       <r>   18.7245    0.0000 </r>
       <r>   19.5456    0.0000 </r>
       <r>   27.4526    0.0000 </r>
       <r>   27.4526    0.0000 </r>
       <r>   28.1329    0.0000 </r>
       <r>   30.7506    0.0000 </r>
       <r>   32.6224    0.0000 </r>
       <r>   33.9182    0.0000 </r>
       <r>   33.9182    0.0000 </r>
       <r>   38.4425    0.0000 </r>
       <r>   46.5712    0.0000 </r>
       <r>   50.5066    0.0000 </r>
       <r>   50.5066    0.0000 </r>
       <r>   51.1615    0.0000 </r>
       <r>   53.3114    0.0000 </r>
       <r>   56.3655    0.0000 </r>
      </set>
      <set comment="kpoint 14">
       <r>   -1.5748    1.0000 </r>
       <r>   15.8595    0.0000 </r>
       <r>   15.8595    0.0000 </r>
       <r>   15.9438    0.0000 </r>
       <r>   17.9349    0.0000 </r>
       <r>   19.2829    0.0000 </r>
       <r>   27.9993    0.0000 </r>
       <r>   27.9993    0.0000 </r>
       <r>   28.3412    0.0000 </r>
       <r>   31.5426    0.0000 </r>
       <r>   33.0373    0.0000 </r>
       <r>   34.2569    0.0000 </r>
       <r>   34.2569    0.0000 </r>
       <r>   38.8653    0.0000 </r>
       <r>   47.5830    0.0000 </r>
       <r>   49.8295    0.0000 </r>
       <r>   49.8295    0.0000 </r>
       <r>   50.2854    0.0000 </r>
       <r>   53.0957    0.0000 </r>
       <r>   56.3381    0.0000 </r>
      </set>
      <set comment="kpoint 15">
       <r>   -1.3270    1.0000 </r>
       <r>   15.5840    0.0000 </r>
       <r>   15.5840    0.0000 </r>
       <r>   15.6311    0.0000 </r>
       <r>   17.1451    0.0000 </r>
       <r>   19.0353    0.0000 </r>
       <r>   28.5354    0.0000 </r>
       <r>   28.5354    0.0000 </r>
       <r>   28.5647    0.0000 </r>
       <r>   32.3554    0.0000 </r>
       <r>   33.4659    0.0000 </r>
       <r>   34.6355    0.0000 </r>
       <r>   34.6355    0.0000 </r>
       <r>   39.2764    0.0000 </r>
       <r>   48.6252    0.0000 </r>
       <r>   49.1631    0.0000 </r>
       <r>   49.1631    0.0000 </r>
       <r>   49.4296    0.0000 </r>
       <r>   52.8818    0.0000 </r>
       <r>   56.3243    0.0000 </r>
      </set>
      <set comment="kpoint 16">
       <r>   -1.0613    1.0000 </r>
       <r>   15.3241    0.0000 </r>
       <r>   15.3242    0.0000 </r>
       <r>   15.3349    0.0000 </r>
       <r>   16.3629    0.0000 </r>
       <r>   18.7979    0.0000 </r>
       <r>   28.8026    0.0000 </r>
       <r>   29.0576    0.0000 </r>
       <r>   29.0576    0.0000 </r>
       <r>   33.1886    0.0000 </r>
       <r>   33.9067    0.0000 </r>
       <r>   35.0558    0.0000 </r>
       <r>   35.0558    0.0000 </r>
       <r>   39.6782    0.0000 </r>
       <r>   48.5085    0.0000 </r>
       <r>   48.5085    0.0000 </r>
       <r>   48.5946    0.0000 </r>
       <r>   49.6876    0.0000 </r>
       <r>   52.6578    0.0000 </r>
       <r>   56.3140    0.0000 </r>
      </set>
      <set comment="kpoint 17">
       <r>   -0.7779    1.0000 </r>
       <r>   15.0556    0.0000 </r>
       <r>   15.0799    0.0000 </r>
       <r>   15.0799    0.0000 </r>
       <r>   15.5910    0.0000 </r>
       <r>   18.5704    0.0000 </r>
       <r>   29.0546    0.0000 </r>
       <r>   29.5632    0.0000 </r>
       <r>   29.5632    0.0000 </r>
       <r>   34.0415    0.0000 </r>
       <r>   34.3587    0.0000 </r>
       <r>   35.5190    0.0000 </r>
       <r>   35.5190    0.0000 </r>
       <r>   40.0716    0.0000 </r>
       <r>   47.7812    0.0000 </r>
       <r>   47.8691    0.0000 </r>
       <r>   47.8691    0.0000 </r>
       <r>   50.7592    0.0000 </r>
       <r>   52.4232    0.0000 </r>
       <r>   56.3085    0.0000 </r>
      </set>
      <set comment="kpoint 18">
       <r>   -0.4770    1.0000 </r>
       <r>   14.7935    0.0000 </r>
       <r>   14.8309    0.0000 </r>
       <r>   14.8513    0.0000 </r>
       <r>   14.8513    0.0000 </r>
       <r>   18.3533    0.0000 </r>
       <r>   29.3196    0.0000 </r>
       <r>   30.0501    0.0000 </r>
       <r>   30.0501    0.0000 </r>
       <r>   34.8211    0.0000 </r>
       <r>   34.9137    0.0000 </r>
       <r>   36.0251    0.0000 </r>
       <r>   36.0251    0.0000 </r>
       <r>   40.4560    0.0000 </r>
       <r>   46.9904    0.0000 </r>
       <r>   47.2482    0.0000 </r>
       <r>   47.2482    0.0000 </r>
       <r>   51.8264    0.0000 </r>
       <r>   52.1782    0.0000 </r>
       <r>   56.3095    0.0000 </r>
      </set>
      <set comment="kpoint 19">
       <r>   -0.1586    1.0000 </r>
       <r>   14.0835    0.0000 </r>
       <r>   14.5488    0.0000 </r>
       <r>   14.6385    0.0000 </r>
       <r>   14.6385    0.0000 </r>
       <r>   18.1475    0.0000 </r>
       <r>   29.5968    0.0000 </r>
       <r>   30.5170    0.0000 </r>
       <r>   30.5170    0.0000 </r>
       <r>   35.2929    0.0000 </r>
       <r>   35.8050    0.0000 </r>
       <r>   36.5727    0.0000 </r>
       <r>   36.5727    0.0000 </r>
       <r>   40.8298    0.0000 </r>
       <r>   46.2232    0.0000 </r>
       <r>   46.6497    0.0000 </r>
       <r>   46.6497    0.0000 </r>
       <r>   51.9199    0.0000 </r>
       <r>   52.8739    0.0000 </r>
       <r>   56.0439    0.0000 </r>
      </set>
      <set comment="kpoint 20">
       <r>    0.1771    1.0000 </r>
       <r>   13.3495    0.0000 </r>
       <r>   14.3217    0.0000 </r>
       <r>   14.4414    0.0000 </r>
       <r>   14.4414    0.0000 </r>
       <r>   17.9538    0.0000 </r>
       <r>   29.8848    0.0000 </r>
       <r>   30.9632    0.0000 </r>
       <r>   30.9632    0.0000 </r>
       <r>   35.7733    0.0000 </r>
       <r>   36.7150    0.0000 </r>
       <r>   37.1583    0.0000 </r>
       <r>   37.1583    0.0000 </r>
       <r>   41.1899    0.0000 </r>
       <r>   45.4811    0.0000 </r>
       <r>   46.0782    0.0000 </r>
       <r>   46.0782    0.0000 </r>
       <r>   51.6517    0.0000 </r>
       <r>   53.8626    0.0000 </r>
       <r>   55.6496    0.0000 </r>
      </set>
      <set comment="kpoint 21">
       <r>    0.5298    1.0000 </r>
       <r>   12.6295    0.0000 </r>
       <r>   14.1124    0.0000 </r>
       <r>   14.2601    0.0000 </r>
       <r>   14.2601    0.0000 </r>
       <r>   17.7730    0.0000 </r>
       <r>   30.1822    0.0000 </r>
       <r>   31.3887    0.0000 </r>
       <r>   31.3887    0.0000 </r>
       <r>   36.2614    0.0000 </r>
       <r>   37.6434    0.0000 </r>
       <r>   37.7760    0.0000 </r>
       <r>   37.7760    0.0000 </r>
       <r>   41.5321    0.0000 </r>
       <r>   44.7658    0.0000 </r>
       <r>   45.5402    0.0000 </r>
       <r>   45.5402    0.0000 </r>
       <r>   51.3751    0.0000 </r>
       <r>   54.6086    0.0000 </r>
       <r>   55.3689    0.0000 </r>
      </set>
      <set comment="kpoint 22">
       <r>    0.8994    1.0000 </r>
       <r>   11.9240    0.0000 </r>
       <r>   13.9210    0.0000 </r>
       <r>   14.0945    0.0000 </r>
       <r>   14.0945    0.0000 </r>
       <r>   17.6058    0.0000 </r>
       <r>   30.4867    0.0000 </r>
       <r>   31.7938    0.0000 </r>
       <r>   31.7938    0.0000 </r>
       <r>   36.7560    0.0000 </r>
       <r>   38.4161    0.0000 </r>
       <r>   38.4161    0.0000 </r>
       <r>   38.5898    0.0000 </r>
       <r>   41.8505    0.0000 </r>
       <r>   44.0793    0.0000 </r>
       <r>   45.0454    0.0000 </r>
       <r>   45.0454    0.0000 </r>
       <r>   51.0922    0.0000 </r>
       <r>   54.4370    0.0000 </r>
       <r>   55.8835    0.0000 </r>
      </set>
      <set comment="kpoint 23">
       <r>    1.2854    1.0000 </r>
       <r>   11.2335    0.0000 </r>
       <r>   13.7475    0.0000 </r>
       <r>   13.9448    0.0000 </r>
       <r>   13.9448    0.0000 </r>
       <r>   17.4528    0.0000 </r>
       <r>   30.7959    0.0000 </r>
       <r>   32.1783    0.0000 </r>
       <r>   32.1783    0.0000 </r>
       <r>   37.2559    0.0000 </r>
       <r>   39.0627    0.0000 </r>
       <r>   39.0627    0.0000 </r>
       <r>   39.5538    0.0000 </r>
       <r>   42.1378    0.0000 </r>
       <r>   43.4244    0.0000 </r>
       <r>   44.6097    0.0000 </r>
       <r>   44.6097    0.0000 </r>
       <r>   50.8083    0.0000 </r>
       <r>   53.9593    0.0000 </r>
       <r>   56.1489    0.0000 </r>
      </set>
      <set comment="kpoint 24">
       <r>    1.6876    1.0000 </r>
       <r>   10.5586    0.0000 </r>
       <r>   13.5922    0.0000 </r>
       <r>   13.8108    0.0000 </r>
       <r>   13.8108    0.0000 </r>
       <r>   17.3145    0.0000 </r>
       <r>   31.1064    0.0000 </r>
       <r>   32.5419    0.0000 </r>
       <r>   32.5419    0.0000 </r>
       <r>   37.7591    0.0000 </r>
       <r>   39.6882    0.0000 </r>
       <r>   39.6883    0.0000 </r>
       <r>   40.5351    0.0000 </r>
       <r>   42.3848    0.0000 </r>
       <r>   42.8045    0.0000 </r>
       <r>   44.2610    0.0000 </r>
       <r>   44.2610    0.0000 </r>
       <r>   50.5311    0.0000 </r>
       <r>   53.4675    0.0000 </r>
       <r>   55.9448    0.0000 </r>
      </set>
      <set comment="kpoint 25">
       <r>    2.1053    1.0000 </r>
       <r>    9.9001    0.0000 </r>
       <r>   13.4550    0.0000 </r>
       <r>   13.6926    0.0000 </r>
       <r>   13.6926    0.0000 </r>
       <r>   17.1915    0.0000 </r>
       <r>   31.4133    0.0000 </r>
       <r>   32.8829    0.0000 </r>
       <r>   32.8829    0.0000 </r>
       <r>   38.2633    0.0000 </r>
       <r>   40.2442    0.0000 </r>
       <r>   40.2442    0.0000 </r>
       <r>   41.5329    0.0000 </r>
       <r>   42.2237    0.0000 </r>
       <r>   42.5807    0.0000 </r>
       <r>   44.0479    0.0000 </r>
       <r>   44.0479    0.0000 </r>
       <r>   50.2694    0.0000 </r>
       <r>   52.9927    0.0000 </r>
       <r>   55.4061    0.0000 </r>
      </set>
      <set comment="kpoint 26">
       <r>    2.5375    1.0000 </r>
       <r>    9.2589    0.0000 </r>
       <r>   13.3360    0.0000 </r>
       <r>   13.5902    0.0000 </r>
       <r>   13.5902    0.0000 </r>
       <r>   17.0841    0.0000 </r>
       <r>   31.7115    0.0000 </r>
       <r>   33.1989    0.0000 </r>
       <r>   33.1989    0.0000 </r>
       <r>   38.7653    0.0000 </r>
       <r>   40.6577    0.0000 </r>
       <r>   40.6577    0.0000 </r>
       <r>   41.6887    0.0000 </r>
       <r>   42.5470    0.0000 </r>
       <r>   42.7149    0.0000 </r>
       <r>   44.0477    0.0000 </r>
       <r>   44.0477    0.0000 </r>
       <r>   50.0423    0.0000 </r>
       <r>   52.5529    0.0000 </r>
       <r>   54.5263    0.0000 </r>
      </set>
      <set comment="kpoint 27">
       <r>    2.9829    1.0000 </r>
       <r>    8.6366    0.0000 </r>
       <r>   13.2352    0.0000 </r>
       <r>   13.5036    0.0000 </r>
       <r>   13.5036    0.0000 </r>
       <r>   16.9926    0.0000 </r>
       <r>   31.9933    0.0000 </r>
       <r>   33.4854    0.0000 </r>
       <r>   33.4854    0.0000 </r>
       <r>   39.2603    0.0000 </r>
       <r>   40.8686    0.0000 </r>
       <r>   40.8686    0.0000 </r>
       <r>   41.2065    0.0000 </r>
       <r>   42.7761    0.0000 </r>
       <r>   43.5755    0.0000 </r>
       <r>   44.3223    0.0000 </r>
       <r>   44.3223    0.0000 </r>
       <r>   49.8581    0.0000 </r>
       <r>   52.1501    0.0000 </r>
       <r>   53.4994    0.0000 </r>
      </set>
      <set comment="kpoint 28">
       <r>    3.4387    1.0000 </r>
       <r>    8.0360    0.0000 </r>
       <r>   13.1527    0.0000 </r>
       <r>   13.4327    0.0000 </r>
       <r>   13.4327    0.0000 </r>
       <r>   16.9174    0.0000 </r>
       <r>   32.2492    0.0000 </r>
       <r>   33.7367    0.0000 </r>
       <r>   33.7367    0.0000 </r>
       <r>   39.7415    0.0000 </r>
       <r>   40.7866    0.0000 </r>
       <r>   40.8990    0.0000 </r>
       <r>   40.8990    0.0000 </r>
       <r>   42.7595    0.0000 </r>
       <r>   44.6168    0.0000 </r>
       <r>   44.8539    0.0000 </r>
       <r>   44.8539    0.0000 </r>
       <r>   49.7298    0.0000 </r>
       <r>   51.7808    0.0000 </r>
       <r>   52.4394    0.0000 </r>
      </set>
      <set comment="kpoint 29">
       <r>    3.8991    1.0000 </r>
       <r>    7.4630    0.0000 </r>
       <r>   13.0885    0.0000 </r>
       <r>   13.3775    0.0000 </r>
       <r>   13.3775    0.0000 </r>
       <r>   16.8587    0.0000 </r>
       <r>   32.4681    0.0000 </r>
       <r>   33.9452    0.0000 </r>
       <r>   33.9452    0.0000 </r>
       <r>   40.1981    0.0000 </r>
       <r>   40.4401    0.0000 </r>
       <r>   40.8321    0.0000 </r>
       <r>   40.8321    0.0000 </r>
       <r>   42.6657    0.0000 </r>
       <r>   45.5634    0.0000 </r>
       <r>   45.5634    0.0000 </r>
       <r>   45.6668    0.0000 </r>
       <r>   49.6552    0.0000 </r>
       <r>   51.3837    0.0000 </r>
       <r>   51.3841    0.0000 </r>
      </set>
      <set comment="kpoint 30">
       <r>    4.3495    1.0000 </r>
       <r>    6.9321    0.3329 </r>
       <r>   13.0427    0.0000 </r>
       <r>   13.3382    0.0000 </r>
       <r>   13.3382    0.0000 </r>
       <r>   16.8166    0.0000 </r>
       <r>   32.6374    0.0000 </r>
       <r>   34.1026    0.0000 </r>
       <r>   34.1026    0.0000 </r>
       <r>   40.1796    0.0000 </r>
       <r>   40.6096    0.0000 </r>
       <r>   40.7414    0.0000 </r>
       <r>   40.7414    0.0000 </r>
       <r>   42.5121    0.0000 </r>
       <r>   46.3793    0.0000 </r>
       <r>   46.3793    0.0000 </r>
       <r>   46.7150    0.0000 </r>
       <r>   49.6270    0.0000 </r>
       <r>   50.3496    0.0000 </r>
       <r>   50.3496    0.0000 </r>
      </set>
      <set comment="kpoint 31">
       <r>    4.7435    1.0000 </r>
       <r>    6.4898    0.9965 </r>
       <r>   13.0152    0.0000 </r>
       <r>   13.3145    0.0000 </r>
       <r>   13.3146    0.0000 </r>
       <r>   16.7913    0.0000 </r>
       <r>   32.7451    0.0000 </r>
       <r>   34.2010    0.0000 </r>
       <r>   34.2011    0.0000 </r>
       <r>   40.0172    0.0000 </r>
       <r>   40.6718    0.0000 </r>
       <r>   40.6718    0.0000 </r>
       <r>   40.9314    0.0000 </r>
       <r>   42.3437    0.0000 </r>
       <r>   47.2415    0.0000 </r>
       <r>   47.2415    0.0000 </r>
       <r>   47.7185    0.0000 </r>
       <r>   49.3669    0.0000 </r>
       <r>   49.3669    0.0000 </r>
       <r>   49.6273    0.0000 </r>
      </set>
      <set comment="kpoint 32">
       <r>    4.9300    1.0000 </r>
       <r>    6.2872    1.0000 </r>
       <r>   13.0060    0.0000 </r>
       <r>   13.3067    0.0000 </r>
       <r>   13.3067    0.0000 </r>
       <r>   16.7829    0.0000 </r>
       <r>   32.7821    0.0000 </r>
       <r>   34.2346    0.0000 </r>
       <r>   34.2346    0.0000 </r>
       <r>   39.9619    0.0000 </r>
       <r>   40.6462    0.0000 </r>
       <r>   40.6462    0.0000 </r>
       <r>   41.0657    0.0000 </r>
       <r>   42.2604    0.0000 </r>
       <r>   47.8626    0.0000 </r>
       <r>   47.8626    0.0000 </r>
       <r>   48.3320    0.0000 </r>
       <r>   48.7071    0.0000 </r>
       <r>   48.7071    0.0000 </r>
       <r>   49.6624    0.0000 </r>
      </set>
      <set comment="kpoint 33">
       <r>    4.9300    1.0000 </r>
       <r>    6.2872    1.0000 </r>
       <r>   13.0060    0.0000 </r>
       <r>   13.3067    0.0000 </r>
       <r>   13.3067    0.0000 </r>
       <r>   16.7829    0.0000 </r>
       <r>   32.7821    0.0000 </r>
       <r>   34.2346    0.0000 </r>
       <r>   34.2346    0.0000 </r>
       <r>   39.9619    0.0000 </r>
       <r>   40.6462    0.0000 </r>
       <r>   40.6462    0.0000 </r>
       <r>   41.0657    0.0000 </r>
       <r>   42.2604    0.0000 </r>
       <r>   47.8626    0.0000 </r>
       <r>   47.8626    0.0000 </r>
       <r>   48.3320    0.0000 </r>
       <r>   48.7071    0.0000 </r>
       <r>   48.7071    0.0000 </r>
       <r>   49.7082    0.0000 </r>
      </set>
      <set comment="kpoint 34">
       <r>    4.9379    1.0000 </r>
       <r>    6.2957    1.0000 </r>
       <r>   12.6273    0.0000 </r>
       <r>   13.2396    0.0000 </r>
       <r>   13.7014    0.0000 </r>
       <r>   16.8628    0.0000 </r>
       <r>   32.7344    0.0000 </r>
       <r>   34.1138    0.0000 </r>
       <r>   34.2365    0.0000 </r>
       <r>   40.0234    0.0000 </r>
       <r>   40.5647    0.0000 </r>
       <r>   40.6510    0.0000 </r>
       <r>   41.1037    0.0000 </r>
       <r>   42.3561    0.0000 </r>
       <r>   47.7539    0.0000 </r>
       <r>   47.8089    0.0000 </r>
       <r>   48.0083    0.0000 </r>
       <r>   48.7347    0.0000 </r>
       <r>   49.0425    0.0000 </r>
       <r>   49.7771    0.0000 </r>
      </set>
      <set comment="kpoint 35">
       <r>    4.9619    1.0000 </r>
       <r>    6.3212    0.9999 </r>
       <r>   12.1464    0.0000 </r>
       <r>   13.0546    0.0000 </r>
       <r>   14.2306    0.0000 </r>
       <r>   17.0865    0.0000 </r>
       <r>   32.5928    0.0000 </r>
       <r>   33.7746    0.0000 </r>
       <r>   34.2420    0.0000 </r>
       <r>   40.1751    0.0000 </r>
       <r>   40.3730    0.0000 </r>
       <r>   40.6653    0.0000 </r>
       <r>   41.2244    0.0000 </r>
       <r>   42.5861    0.0000 </r>
       <r>   47.4916    0.0000 </r>
       <r>   47.5620    0.0000 </r>
       <r>   47.6858    0.0000 </r>
       <r>   48.8219    0.0000 </r>
       <r>   49.5236    0.0000 </r>
       <r>   50.0372    0.0000 </r>
      </set>
      <set comment="kpoint 36">
       <r>    5.0018    1.0000 </r>
       <r>    6.3636    0.9998 </r>
       <r>   11.6748    0.0000 </r>
       <r>   12.7865    0.0000 </r>
       <r>   14.7826    0.0000 </r>
       <r>   17.4190    0.0000 </r>
       <r>   32.3613    0.0000 </r>
       <r>   33.2697    0.0000 </r>
       <r>   34.2509    0.0000 </r>
       <r>   40.1506    0.0000 </r>
       <r>   40.3502    0.0000 </r>
       <r>   40.6891    0.0000 </r>
       <r>   41.4346    0.0000 </r>
       <r>   42.8598    0.0000 </r>
       <r>   47.1177    0.0000 </r>
       <r>   47.1661    0.0000 </r>
       <r>   47.5583    0.0000 </r>
       <r>   48.9805    0.0000 </r>
       <r>   50.0249    0.0000 </r>
       <r>   50.4603    0.0000 </r>
      </set>
      <set comment="kpoint 37">
       <r>    5.0577    1.0000 </r>
       <r>    6.4228    0.9992 </r>
       <r>   11.2175    0.0000 </r>
       <r>   12.4680    0.0000 </r>
       <r>   15.3524    0.0000 </r>
       <r>   17.8274    0.0000 </r>
       <r>   32.0462    0.0000 </r>
       <r>   32.6512    0.0000 </r>
       <r>   34.2631    0.0000 </r>
       <r>   39.9421    0.0000 </r>
       <r>   40.5054    0.0000 </r>
       <r>   40.7224    0.0000 </r>
       <r>   41.7125    0.0000 </r>
       <r>   43.1149    0.0000 </r>
       <r>   46.6844    0.0000 </r>
       <r>   46.8251    0.0000 </r>
       <r>   47.4738    0.0000 </r>
       <r>   49.2251    0.0000 </r>
       <r>   50.5363    0.0000 </r>
       <r>   50.9749    0.0000 </r>
      </set>
      <set comment="kpoint 38">
       <r>    5.1296    1.0000 </r>
       <r>    6.4989    0.9958 </r>
       <r>   10.7758    0.0000 </r>
       <r>   12.1222    0.0000 </r>
       <r>   15.9386    0.0000 </r>
       <r>   18.2886    0.0000 </r>
       <r>   31.6568    0.0000 </r>
       <r>   31.9589    0.0000 </r>
       <r>   34.2780    0.0000 </r>
       <r>   39.7667    0.0000 </r>
       <r>   40.6384    0.0000 </r>
       <r>   40.7651    0.0000 </r>
       <r>   42.0056    0.0000 </r>
       <r>   43.3181    0.0000 </r>
       <r>   46.2640    0.0000 </r>
       <r>   46.4899    0.0000 </r>
       <r>   47.4638    0.0000 </r>
       <r>   49.5660    0.0000 </r>
       <r>   51.0515    0.0000 </r>
       <r>   51.5696    0.0000 </r>
      </set>
      <set comment="kpoint 39">
       <r>    5.2175    1.0000 </r>
       <r>    6.5915    0.9759 </r>
       <r>   10.3499    0.0000 </r>
       <r>   11.7637    0.0000 </r>
       <r>   16.5410    0.0000 </r>
       <r>   18.7875    0.0000 </r>
       <r>   31.2038    0.0000 </r>
       <r>   31.2196    0.0000 </r>
       <r>   34.2952    0.0000 </r>
       <r>   39.6299    0.0000 </r>
       <r>   40.7616    0.0000 </r>
       <r>   40.8171    0.0000 </r>
       <r>   42.2622    0.0000 </r>
       <r>   43.4552    0.0000 </r>
       <r>   45.8576    0.0000 </r>
       <r>   46.1704    0.0000 </r>
       <r>   47.5493    0.0000 </r>
       <r>   50.0038    0.0000 </r>
       <r>   51.5660    0.0000 </r>
       <r>   51.6539    0.0000 </r>
      </set>
      <set comment="kpoint 40">
       <r>    5.3213    1.0000 </r>
       <r>    6.7006    0.8859 </r>
       <r>    9.9400    0.0000 </r>
       <r>   11.4019    0.0000 </r>
       <r>   17.1591    0.0000 </r>
       <r>   19.3143    0.0000 </r>
       <r>   30.4510    0.0000 </r>
       <r>   30.6985    0.0000 </r>
       <r>   34.3140    0.0000 </r>
       <r>   39.5307    0.0000 </r>
       <r>   40.8783    0.0000 </r>
       <r>   40.8850    0.0000 </r>
       <r>   42.4492    0.0000 </r>
       <r>   43.5262    0.0000 </r>
       <r>   45.4656    0.0000 </r>
       <r>   45.8723    0.0000 </r>
       <r>   47.7362    0.0000 </r>
       <r>   50.5234    0.0000 </r>
       <r>   51.8647    0.0000 </r>
       <r>   52.0679    0.0000 </r>
      </set>
      <set comment="kpoint 41">
       <r>    5.4412    1.0000 </r>
       <r>    6.8259    0.6251 </r>
       <r>    9.5462    0.0000 </r>
       <r>   11.0426    0.0000 </r>
       <r>   17.7928    0.0000 </r>
       <r>   19.8627    0.0000 </r>
       <r>   29.6652    0.0000 </r>
       <r>   30.1520    0.0000 </r>
       <r>   34.3337    0.0000 </r>
       <r>   39.4649    0.0000 </r>
       <r>   40.9486    0.0000 </r>
       <r>   41.0142    0.0000 </r>
       <r>   42.5567    0.0000 </r>
       <r>   43.5408    0.0000 </r>
       <r>   45.0886    0.0000 </r>
       <r>   45.5991    0.0000 </r>
       <r>   48.0193    0.0000 </r>
       <r>   51.0883    0.0000 </r>
       <r>   52.1254    0.0000 </r>
       <r>   52.5408    0.0000 </r>
      </set>
      <set comment="kpoint 42">
       <r>    5.5771    1.0000 </r>
       <r>    6.9671    0.2486 </r>
       <r>    9.1685    0.0000 </r>
       <r>   10.6900    0.0000 </r>
       <r>   18.4417    0.0000 </r>
       <r>   20.4275    0.0000 </r>
       <r>   28.8701    0.0000 </r>
       <r>   29.5748    0.0000 </r>
       <r>   34.3535    0.0000 </r>
       <r>   39.4266    0.0000 </r>
       <r>   41.0275    0.0000 </r>
       <r>   41.1518    0.0000 </r>
       <r>   42.5918    0.0000 </r>
       <r>   43.5129    0.0000 </r>
       <r>   44.7263    0.0000 </r>
       <r>   45.3530    0.0000 </r>
       <r>   48.3805    0.0000 </r>
       <r>   51.6177    0.0000 </r>
       <r>   52.4860    0.0000 </r>
       <r>   52.9486    0.0000 </r>
      </set>
      <set comment="kpoint 43">
       <r>    5.7290    1.0000 </r>
       <r>    7.1234    0.0372 </r>
       <r>    8.8071    0.0000 </r>
       <r>   10.3471    0.0000 </r>
       <r>   19.1057    0.0000 </r>
       <r>   21.0046    0.0000 </r>
       <r>   28.0718    0.0000 </r>
       <r>   28.9765    0.0000 </r>
       <r>   34.3729    0.0000 </r>
       <r>   39.4099    0.0000 </r>
       <r>   41.1147    0.0000 </r>
       <r>   41.2988    0.0000 </r>
       <r>   42.5711    0.0000 </r>
       <r>   43.4573    0.0000 </r>
       <r>   44.3800    0.0000 </r>
       <r>   45.1363    0.0000 </r>
       <r>   48.7999    0.0000 </r>
       <r>   52.0180    0.0000 </r>
       <r>   53.0050    0.0000 </r>
       <r>   53.2257    0.0000 </r>
      </set>
      <set comment="kpoint 44">
       <r>    5.8969    1.0000 </r>
       <r>    7.2942    0.0014 </r>
       <r>    8.4618    0.0000 </r>
       <r>   10.0164    0.0000 </r>
       <r>   19.7845    0.0000 </r>
       <r>   21.5892    0.0000 </r>
       <r>   27.2744    0.0000 </r>
       <r>   28.3666    0.0000 </r>
       <r>   34.3909    0.0000 </r>
       <r>   39.4087    0.0000 </r>
       <r>   41.2097    0.0000 </r>
       <r>   41.4539    0.0000 </r>
       <r>   42.5133    0.0000 </r>
       <r>   43.3872    0.0000 </r>
       <r>   44.0495    0.0000 </r>
       <r>   44.9503    0.0000 </r>
       <r>   49.2566    0.0000 </r>
       <r>   52.3055    0.0000 </r>
       <r>   53.2961    0.0000 </r>
       <r>   53.5717    0.0000 </r>
      </set>
      <set comment="kpoint 45">
       <r>    6.0809    1.0000 </r>
       <r>    7.4777    0.0000 </r>
       <r>    8.1326    0.0000 </r>
       <r>    9.7008    0.0000 </r>
       <r>   20.4778    0.0000 </r>
       <r>   22.1749    0.0000 </r>
       <r>   26.4809    0.0000 </r>
       <r>   27.7552    0.0000 </r>
       <r>   34.4069    0.0000 </r>
       <r>   39.4173    0.0000 </r>
       <r>   41.3119    0.0000 </r>
       <r>   41.6117    0.0000 </r>
       <r>   42.4383    0.0000 </r>
       <r>   43.3140    0.0000 </r>
       <r>   43.7353    0.0000 </r>
       <r>   44.7964    0.0000 </r>
       <r>   49.7343    0.0000 </r>
       <r>   52.5465    0.0000 </r>
       <r>   53.1566    0.0000 </r>
       <r>   53.8911    0.0000 </r>
      </set>
      <set comment="kpoint 46">
       <r>    6.2810    1.0000 </r>
       <r>    7.6707    0.0000 </r>
       <r>    7.8197    0.0000 </r>
       <r>    9.4044    0.0000 </r>
       <r>   21.1852    0.0000 </r>
       <r>   22.7508    0.0000 </r>
       <r>   25.6938    0.0000 </r>
       <r>   27.1565    0.0000 </r>
       <r>   34.4201    0.0000 </r>
       <r>   39.4305    0.0000 </r>
       <r>   41.4199    0.0000 </r>
       <r>   41.7562    0.0000 </r>
       <r>   42.3733    0.0000 </r>
       <r>   43.2466    0.0000 </r>
       <r>   43.4380    0.0000 </r>
       <r>   44.6755    0.0000 </r>
       <r>   50.2212    0.0000 </r>
       <r>   52.7595    0.0000 </r>
       <r>   52.8759    0.0000 </r>
       <r>   53.8901    0.0000 </r>
      </set>
      <set comment="kpoint 47">
       <r>    6.4971    0.9959 </r>
       <r>    7.5229    0.0000 </r>
       <r>    7.8652    0.0000 </r>
       <r>    9.1356    0.0000 </r>
       <r>   21.9063    0.0000 </r>
       <r>   23.2927    0.0000 </r>
       <r>   24.9149    0.0000 </r>
       <r>   26.5968    0.0000 </r>
       <r>   34.4301    0.0000 </r>
       <r>   39.4439    0.0000 </r>
       <r>   41.5324    0.0000 </r>
       <r>   41.8440    0.0000 </r>
       <r>   42.3700    0.0000 </r>
       <r>   43.1587    0.0000 </r>
       <r>   43.1931    0.0000 </r>
       <r>   44.5886    0.0000 </r>
       <r>   50.7081    0.0000 </r>
       <r>   52.5164    0.0000 </r>
       <r>   52.9590    0.0000 </r>
       <r>   53.7704    0.0000 </r>
      </set>
      <set comment="kpoint 48">
       <r>    6.7294    0.8417 </r>
       <r>    7.2423    0.0043 </r>
       <r>    8.0379    0.0000 </r>
       <r>    8.9183    0.0000 </r>
       <r>   22.6405    0.0000 </r>
       <r>   23.7373    0.0000 </r>
       <r>   24.1457    0.0000 </r>
       <r>   26.1408    0.0000 </r>
       <r>   34.4362    0.0000 </r>
       <r>   39.4533    0.0000 </r>
       <r>   41.6448    0.0000 </r>
       <r>   41.8312    0.0000 </r>
       <r>   42.4776    0.0000 </r>
       <r>   42.9000    0.0000 </r>
       <r>   43.1587    0.0000 </r>
       <r>   44.5362    0.0000 </r>
       <r>   51.1904    0.0000 </r>
       <r>   52.1045    0.0000 </r>
       <r>   53.1398    0.0000 </r>
       <r>   53.6240    0.0000 </r>
      </set>
      <set comment="kpoint 49">
       <r>    6.9778    0.2252 </r>
       <r>    6.9778    0.2252 </r>
       <r>    8.1188    0.0000 </r>
       <r>    8.8224    0.0000 </r>
       <r>   23.3873    0.0000 </r>
       <r>   23.3873    0.0000 </r>
       <r>   23.9301    0.0000 </r>
       <r>   25.9442    0.0000 </r>
       <r>   34.4384    0.0000 </r>
       <r>   39.4568    0.0000 </r>
       <r>   41.7505    0.0000 </r>
       <r>   41.7505    0.0000 </r>
       <r>   42.6677    0.0000 </r>
       <r>   42.6677    0.0000 </r>
       <r>   43.1469    0.0000 </r>
       <r>   44.5187    0.0000 </r>
       <r>   51.6611    0.0000 </r>
       <r>   51.6611    0.0000 </r>
       <r>   53.2648    0.0000 </r>
       <r>   53.5323    0.0000 </r>
      </set>
      <set comment="kpoint 50">
       <r>    6.9778    0.2252 </r>
       <r>    6.9778    0.2252 </r>
       <r>    8.1188    0.0000 </r>
       <r>    8.8224    0.0000 </r>
       <r>   23.3873    0.0000 </r>
       <r>   23.3873    0.0000 </r>
       <r>   23.9301    0.0000 </r>
       <r>   25.9442    0.0000 </r>
       <r>   34.4384    0.0000 </r>
       <r>   39.4568    0.0000 </r>
       <r>   41.7505    0.0000 </r>
       <r>   41.7505    0.0000 </r>
       <r>   42.6677    0.0000 </r>
       <r>   42.6677    0.0000 </r>
       <r>   43.1469    0.0000 </r>
       <r>   44.5187    0.0000 </r>
[...]
       </set>
       <set comment="band 20">
        <r>  4.4583  0.1627  0.0610  0.0203  0.0000  0.0000  0.0000  0.0000  0.0000 </r>
       </set>
      </set>
      <set comment="kpoint 204">
       <set comment="band 1">
        <r>  0.0000  0.0768  0.1152  0.0384  0.0000  0.0000  0.0000  0.0000  0.0000 </r>
       </set>
       <set comment="band 2">
        <r>  0.2359  0.0098  0.0037  0.0012  0.0000  0.0000  0.0000  0.0000  0.0000 </r>
       </set>
       <set comment="band 3">
        <r>  0.0652  0.1076  0.0403  0.0134  0.0000  0.0000  0.0000  0.0000  0.0000 </r>
       </set>
       <set comment="band 4">
        <r>  0.0000  0.0000  0.0811  0.2434  0.0000  0.0000  0.0000  0.0000  0.0000 </r>
       </set>
       <set comment="band 5">
        <r>  0.1205  0.0115  0.0043  0.0014  0.0000  0.0000  0.0000  0.0000  0.0000 </r>
       </set>
       <set comment="band 6">
        <r>  0.1259  0.0978  0.0367  0.0122  0.0000  0.0000  0.0000  0.0000  0.0000 </r>
       </set>
       <set comment="band 7">
        <r>  0.0000  0.0000  0.0184  0.0551  0.0000  0.0000  0.0000  0.0000  0.0000 </r>
       </set>
       <set comment="band 8">
        <r>  0.0000  0.0000  0.0000  0.0000  0.0000  0.0000  0.0000  0.0000  0.0000 </r>
       </set>
       <set comment="band 9">
        <r>  0.0000  0.0226  0.0338  0.0113  0.0000  0.0000  0.0000  0.0000  0.0000 </r>
       </set>
       <set comment="band 10">
        <r>  0.0424  0.0849  0.0318  0.0106  0.0000  0.0000  0.0000  0.0000  0.0000 </r>
       </set>
       <set comment="band 11">
        <r>  0.0000  0.0193  0.0290  0.0097  0.0000  0.0000  0.0000  0.0000  0.0000 </r>
       </set>
       <set comment="band 12">
        <r>  0.0000  0.0000  0.0000  0.0000  0.0000  0.0000  0.0000  0.0000  0.0000 </r>
       </set>
       <set comment="band 13">
        <r>  0.0000  0.0000  0.0587  0.1761  0.0000  0.0000  0.0000  0.0000  0.0000 </r>
       </set>
       <set comment="band 14">
        <r>  0.0336  0.0798  0.0299  0.0100  0.0000  0.0000  0.0000  0.0000  0.0000 </r>
       </set>
       <set comment="band 15">
        <r>  0.0000  0.1016  0.1525  0.0508  0.0000  0.0000  0.0000  0.0000  0.0000 </r>
       </set>
       <set comment="band 16">
        <r>  0.0206  0.0055  0.0021  0.0007  0.0000  0.0000  0.0000  0.0000  0.0000 </r>
       </set>
       <set comment="band 17">
        <r>  0.0000  0.0000  0.0296  0.0887  0.0000  0.0000  0.0000  0.0000  0.0000 </r>
       </set>
       <set comment="band 18">
        <r>  0.0000  0.0000  0.0000  0.0000  0.0000  0.0000  0.0000  0.0000  0.0000 </r>
       </set>
       <set comment="band 19">
        <r>  0.0000  0.1410  0.2115  0.0705  0.0000  0.0000  0.0000  0.0000  0.0000 </r>
       </set>
       <set comment="band 20">
        <r>  4.1065  0.0856  0.0321  0.0107  0.0000  0.0000  0.0000  0.0000  0.0000 </r>
       </set>
      </set>
      <set comment="kpoint 205">
       <set comment="band 1">
        <r>  0.0000  0.0771  0.1157  0.0386  0.0000  0.0000  0.0000  0.0000  0.0000 </r>
       </set>
       <set comment="band 2">
        <r>  0.2422  0.0065  0.0024  0.0008  0.0000  0.0000  0.0000  0.0000  0.0000 </r>
       </set>
       <set comment="band 3">
        <r>  0.0502  0.1108  0.0415  0.0138  0.0000  0.0000  0.0000  0.0000  0.0000 </r>
       </set>
       <set comment="band 4">
        <r>  0.0000  0.0000  0.0815  0.2446  0.0000  0.0000  0.0000  0.0000  0.0000 </r>
       </set>
       <set comment="band 5">
        <r>  0.1039  0.0220  0.0082  0.0027  0.0000  0.0000  0.0000  0.0000  0.0000 </r>
       </set>
       <set comment="band 6">
        <r>  0.1549  0.0852  0.0320  0.0107  0.0000  0.0000  0.0000  0.0000  0.0000 </r>
       </set>
       <set comment="band 7">
        <r>  0.0000  0.0000  0.0142  0.0427  0.0000  0.0000  0.0000  0.0000  0.0000 </r>
       </set>
       <set comment="band 8">
        <r>  0.0000  0.0000  0.0000  0.0000  0.0000  0.0000  0.0000  0.0000  0.0000 </r>
       </set>
       <set comment="band 9">
        <r>  0.0000  0.0176  0.0265  0.0088  0.0000  0.0000  0.0000  0.0000  0.0000 </r>
       </set>
       <set comment="band 10">
        <r>  0.0369  0.0959  0.0359  0.0120  0.0000  0.0000  0.0000  0.0000  0.0000 </r>
       </set>
       <set comment="band 11">
        <r>  0.0000  0.0000  0.0000  0.0000  0.0000  0.0000  0.0000  0.0000  0.0000 </r>
       </set>
       <set comment="band 12">
        <r>  0.0000  0.0321  0.0481  0.0160  0.0000  0.0000  0.0000  0.0000  0.0000 </r>
       </set>
       <set comment="band 13">
        <r>  0.0000  0.0000  0.0607  0.1820  0.0000  0.0000  0.0000  0.0000  0.0000 </r>
       </set>
       <set comment="band 14">
        <r>  0.0153  0.0798  0.0299  0.0100  0.0000  0.0000  0.0000  0.0000  0.0000 </r>
       </set>
       <set comment="band 15">
        <r>  0.0000  0.0828  0.1242  0.0414  0.0000  0.0000  0.0000  0.0000  0.0000 </r>
       </set>
       <set comment="band 16">
        <r>  0.0316  0.0093  0.0035  0.0012  0.0000  0.0000  0.0000  0.0000  0.0000 </r>
       </set>
       <set comment="band 17">
        <r>  0.0000  0.0000  0.0000  0.0000  0.0000  0.0000  0.0000  0.0000  0.0000 </r>
       </set>
       <set comment="band 18">
        <r>  0.0000  0.0000  0.0309  0.0926  0.0000  0.0000  0.0000  0.0000  0.0000 </r>
       </set>
       <set comment="band 19">
        <r>  0.0000  0.1490  0.2235  0.0745  0.0000  0.0000  0.0000  0.0000  0.0000 </r>
       </set>
       <set comment="band 20">
        <r>  3.2680  0.0249  0.0094  0.0031  0.0000  0.0000  0.0000  0.0000  0.0000 </r>
       </set>
      </set>
      <set comment="kpoint 206">
       <set comment="band 1">
        <r>  0.0000  0.0774  0.1161  0.0387  0.0000  0.0000  0.0000  0.0000  0.0000 </r>
       </set>
       <set comment="band 2">
        <r>  0.2467  0.0040  0.0015  0.0005  0.0000  0.0000  0.0000  0.0000  0.0000 </r>
       </set>
       <set comment="band 3">
        <r>  0.0364  0.1124  0.0421  0.0140  0.0000  0.0000  0.0000  0.0000  0.0000 </r>
       </set>
       <set comment="band 4">
        <r>  0.0000  0.0000  0.0818  0.2455  0.0000  0.0000  0.0000  0.0000  0.0000 </r>
       </set>
       <set comment="band 5">
        <r>  0.0814  0.0379  0.0142  0.0047  0.0000  0.0000  0.0000  0.0000  0.0000 </r>
       </set>
       <set comment="band 6">
        <r>  0.1900  0.0684  0.0256  0.0085  0.0000  0.0000  0.0000  0.0000  0.0000 </r>
       </set>
       <set comment="band 7">
        <r>  0.0000  0.0000  0.0101  0.0304  0.0000  0.0000  0.0000  0.0000  0.0000 </r>
       </set>
       <set comment="band 8">
        <r>  0.0000  0.0000  0.0000  0.0000  0.0000  0.0000  0.0000  0.0000  0.0000 </r>
       </set>
       <set comment="band 9">
        <r>  0.0000  0.0127  0.0190  0.0063  0.0000  0.0000  0.0000  0.0000  0.0000 </r>
       </set>
       <set comment="band 10">
        <r>  0.0306  0.1088  0.0408  0.0136  0.0000  0.0000  0.0000  0.0000  0.0000 </r>
       </set>
       <set comment="band 11">
        <r>  0.0000  0.0000  0.0000  0.0000  0.0000  0.0000  0.0000  0.0000  0.0000 </r>
       </set>
       <set comment="band 12">
        <r>  0.0000  0.0450  0.0674  0.0225  0.0000  0.0000  0.0000  0.0000  0.0000 </r>
       </set>
       <set comment="band 13">
        <r>  0.0000  0.0000  0.0631  0.1892  0.0000  0.0000  0.0000  0.0000  0.0000 </r>
       </set>
       <set comment="band 14">
        <r>  0.0033  0.0736  0.0276  0.0092  0.0000  0.0000  0.0000  0.0000  0.0000 </r>
       </set>
       <set comment="band 15">
        <r>  0.0000  0.0650  0.0975  0.0325  0.0000  0.0000  0.0000  0.0000  0.0000 </r>
       </set>
       <set comment="band 16">
        <r>  0.0366  0.0156  0.0059  0.0020  0.0000  0.0000  0.0000  0.0000  0.0000 </r>
       </set>
       <set comment="band 17">
        <r>  0.0000  0.0000  0.0000  0.0000  0.0000  0.0000  0.0000  0.0000  0.0000 </r>
       </set>
       <set comment="band 18">
        <r>  0.0000  0.0000  0.0319  0.0956  0.0000  0.0000  0.0000  0.0000  0.0000 </r>
       </set>
       <set comment="band 19">
        <r>  0.0000  0.1556  0.2334  0.0778  0.0000  0.0000  0.0000  0.0000  0.0000 </r>
       </set>
       <set comment="band 20">
        <r>  1.8655  0.0000  0.0000  0.0000  0.0000  0.0000  0.0000  0.0000  0.0000 </r>
       </set>
      </set>
      <set comment="kpoint 207">
       <set comment="band 1">
        <r>  0.0000  0.0776  0.1164  0.0388  0.0000  0.0000  0.0000  0.0000  0.0000 </r>
       </set>
       <set comment="band 2">
        <r>  0.2498  0.0022  0.0008  0.0003  0.0000  0.0000  0.0000  0.0000  0.0000 </r>
       </set>
       <set comment="band 3">
        <r>  0.0234  0.1115  0.0418  0.0139  0.0000  0.0000  0.0000  0.0000  0.0000 </r>
       </set>
       <set comment="band 4">
        <r>  0.0000  0.0000  0.0821  0.2462  0.0000  0.0000  0.0000  0.0000  0.0000 </r>
       </set>
       <set comment="band 5">
        <r>  0.0539  0.0604  0.0226  0.0075  0.0000  0.0000  0.0000  0.0000  0.0000 </r>
       </set>
       <set comment="band 6">
        <r>  0.2298  0.0473  0.0177  0.0059  0.0000  0.0000  0.0000  0.0000  0.0000 </r>
       </set>
       <set comment="band 7">
        <r>  0.0000  0.0000  0.0063  0.0188  0.0000  0.0000  0.0000  0.0000  0.0000 </r>
       </set>
       <set comment="band 8">
        <r>  0.0000  0.0000  0.0000  0.0000  0.0000  0.0000  0.0000  0.0000  0.0000 </r>
       </set>
       <set comment="band 9">
        <r>  0.0000  0.0079  0.0119  0.0040  0.0000  0.0000  0.0000  0.0000  0.0000 </r>
       </set>
       <set comment="band 10">
        <r>  0.0232  0.1249  0.0468  0.0156  0.0000  0.0000  0.0000  0.0000  0.0000 </r>
       </set>
       <set comment="band 11">
        <r>  0.0000  0.0000  0.0000  0.0000  0.0000  0.0000  0.0000  0.0000  0.0000 </r>
       </set>
       <set comment="band 12">
        <r>  0.0000  0.0000  0.0656  0.1969  0.0000  0.0000  0.0000  0.0000  0.0000 </r>
       </set>
       <set comment="band 13">
        <r>  0.0000  0.0559  0.0838  0.0280  0.0000  0.0000  0.0000  0.0000  0.0000 </r>
       </set>
       <set comment="band 14">
        <r>  0.0001  0.0608  0.0228  0.0076  0.0000  0.0000  0.0000  0.0000  0.0000 </r>
       </set>
       <set comment="band 15">
        <r>  0.0000  0.0488  0.0732  0.0244  0.0000  0.0000  0.0000  0.0000  0.0000 </r>
       </set>
       <set comment="band 16">
        <r>  0.0323  0.0228  0.0085  0.0028  0.0000  0.0000  0.0000  0.0000  0.0000 </r>
       </set>
       <set comment="band 17">
        <r>  0.0000  0.0000  0.0000  0.0000  0.0000  0.0000  0.0000  0.0000  0.0000 </r>
       </set>
       <set comment="band 18">
        <r>  0.0000  0.0000  0.0326  0.0978  0.0000  0.0000  0.0000  0.0000  0.0000 </r>
       </set>
       <set comment="band 19">
        <r>  0.0000  0.1621  0.2432  0.0811  0.0000  0.0000  0.0000  0.0000  0.0000 </r>
       </set>
       <set comment="band 20">
        <r>  0.6801  0.0160  0.0060  0.0020  0.0000  0.0000  0.0000  0.0000  0.0000 </r>
       </set>
      </set>
      <set comment="kpoint 208">
       <set comment="band 1">
        <r>  0.0000  0.0778  0.1166  0.0389  0.0000  0.0000  0.0000  0.0000  0.0000 </r>
       </set>
       <set comment="band 2">
        <r>  0.2519  0.0010  0.0004  0.0001  0.0000  0.0000  0.0000  0.0000  0.0000 </r>
       </set>
       <set comment="band 3">
        <r>  0.0118  0.1060  0.0398  0.0133  0.0000  0.0000  0.0000  0.0000  0.0000 </r>
       </set>
       <set comment="band 4">
        <r>  0.0000  0.0000  0.0822  0.2467  0.0000  0.0000  0.0000  0.0000  0.0000 </r>
       </set>
       <set comment="band 5">
        <r>  0.0265  0.0888  0.0333  0.0111  0.0000  0.0000  0.0000  0.0000  0.0000 </r>
       </set>
       <set comment="band 6">
        <r>  0.2684  0.0246  0.0092  0.0031  0.0000  0.0000  0.0000  0.0000  0.0000 </r>
       </set>
       <set comment="band 7">
        <r>  0.0000  0.0000  0.0030  0.0090  0.0000  0.0000  0.0000  0.0000  0.0000 </r>
       </set>
       <set comment="band 8">
        <r>  0.0000  0.0000  0.0000  0.0000  0.0000  0.0000  0.0000  0.0000  0.0000 </r>
       </set>
       <set comment="band 9">
        <r>  0.0000  0.0038  0.0058  0.0019  0.0000  0.0000  0.0000  0.0000  0.0000 </r>
       </set>
       <set comment="band 10">
        <r>  0.0144  0.1460  0.0547  0.0182  0.0000  0.0000  0.0000  0.0000  0.0000 </r>
       </set>
       <set comment="band 11">
        <r>  0.0000  0.0000  0.0000  0.0000  0.0000  0.0000  0.0000  0.0000  0.0000 </r>
       </set>
       <set comment="band 12">
        <r>  0.0000  0.0000  0.0680  0.2040  0.0000  0.0000  0.0000  0.0000  0.0000 </r>
       </set>
       <set comment="band 13">
        <r>  0.0000  0.0640  0.0960  0.0320  0.0000  0.0000  0.0000  0.0000  0.0000 </r>
       </set>
       <set comment="band 14">
        <r>  0.0042  0.0410  0.0154  0.0051  0.0000  0.0000  0.0000  0.0000  0.0000 </r>
       </set>
       <set comment="band 15">
        <r>  0.0000  0.0326  0.0489  0.0163  0.0000  0.0000  0.0000  0.0000  0.0000 </r>
       </set>
       <set comment="band 16">
        <r>  0.0202  0.0281  0.0105  0.0035  0.0000  0.0000  0.0000  0.0000  0.0000 </r>
       </set>
       <set comment="band 17">
        <r>  0.0000  0.0000  0.0000  0.0000  0.0000  0.0000  0.0000  0.0000  0.0000 </r>
       </set>
       <set comment="band 18">
        <r>  0.0000  0.0000  0.0331  0.0994  0.0000  0.0000  0.0000  0.0000  0.0000 </r>
       </set>
       <set comment="band 19">
        <r>  0.1803  0.0393  0.0147  0.0049  0.0000  0.0000  0.0000  0.0000  0.0000 </r>
       </set>
       <set comment="band 20">
        <r>  0.0000  0.1713  0.2570  0.0856  0.0000  0.0000  0.0000  0.0000  0.0000 </r>
       </set>
      </set>
      <set comment="kpoint 209">
       <set comment="band 1">
        <r>  0.0000  0.0778  0.1168  0.0389  0.0000  0.0000  0.0000  0.0000  0.0000 </r>
       </set>
       <set comment="band 2">
        <r>  0.2531  0.0002  0.0001  0.0000  0.0000  0.0000  0.0000  0.0000  0.0000 </r>
       </set>
       <set comment="band 3">
        <r>  0.0030  0.0875  0.0328  0.0109  0.0000  0.0000  0.0000  0.0000  0.0000 </r>
       </set>
       <set comment="band 4">
        <r>  0.0000  0.0000  0.0823  0.2470  0.0000  0.0000  0.0000  0.0000  0.0000 </r>
       </set>
       <set comment="band 5">
        <r>  0.0071  0.1253  0.0470  0.0157  0.0000  0.0000  0.0000  0.0000  0.0000 </r>
       </set>
       <set comment="band 6">
        <r>  0.2964  0.0068  0.0025  0.0008  0.0000  0.0000  0.0000  0.0000  0.0000 </r>
       </set>
       <set comment="band 7">
        <r>  0.0000  0.0000  0.0008  0.0024  0.0000  0.0000  0.0000  0.0000  0.0000 </r>
       </set>
       <set comment="band 8">
        <r>  0.0000  0.0000  0.0000  0.0000  0.0000  0.0000  0.0000  0.0000  0.0000 </r>
       </set>
       <set comment="band 9">
        <r>  0.0000  0.0010  0.0015  0.0005  0.0000  0.0000  0.0000  0.0000  0.0000 </r>
       </set>
       <set comment="band 10">
        <r>  0.0000  0.0000  0.0000  0.0000  0.0000  0.0000  0.0000  0.0000  0.0000 </r>
       </set>
       <set comment="band 11">
        <r>  0.0050  0.1719  0.0645  0.0215  0.0000  0.0000  0.0000  0.0000  0.0000 </r>
       </set>
       <set comment="band 12">
        <r>  0.0000  0.0000  0.0697  0.2091  0.0000  0.0000  0.0000  0.0000  0.0000 </r>
       </set>
       <set comment="band 13">
        <r>  0.0000  0.0691  0.1036  0.0345  0.0000  0.0000  0.0000  0.0000  0.0000 </r>
       </set>
       <set comment="band 14">
        <r>  0.0122  0.0155  0.0058  0.0019  0.0000  0.0000  0.0000  0.0000  0.0000 </r>
       </set>
       <set comment="band 15">
        <r>  0.0000  0.0135  0.0202  0.0067  0.0000  0.0000  0.0000  0.0000  0.0000 </r>
       </set>
       <set comment="band 16">
        <r>  0.0000  0.0000  0.0000  0.0000  0.0000  0.0000  0.0000  0.0000  0.0000 </r>
       </set>
       <set comment="band 17">
        <r>  0.0059  0.0265  0.0099  0.0033  0.0000  0.0000  0.0000  0.0000  0.0000 </r>
       </set>
       <set comment="band 18">
        <r>  0.0000  0.0000  0.0334  0.1002  0.0000  0.0000  0.0000  0.0000  0.0000 </r>
       </set>
       <set comment="band 19">
        <r>  0.0309  0.0576  0.0216  0.0072  0.0000  0.0000  0.0000  0.0000  0.0000 </r>
       </set>
       <set comment="band 20">
        <r>  0.0000  0.1922  0.2837  0.0979  0.0000  0.0000  0.0000  0.0000  0.0000 </r>
       </set>
      </set>
      <set comment="kpoint 210">
       <set comment="band 1">
        <r>  0.0000  0.0779  0.1168  0.0389  0.0000  0.0000  0.0000  0.0000  0.0000 </r>
       </set>
       <set comment="band 2">
        <r>  0.2535  0.0000  0.0000  0.0000  0.0000  0.0000  0.0000  0.0000  0.0000 </r>
       </set>
       <set comment="band 3">
        <r>  0.0000  0.0000  0.0000  0.0000  0.0000  0.0000  0.0000  0.0000  0.0000 </r>
       </set>
       <set comment="band 4">
        <r>  0.0000  0.2196  0.0830  0.0268  0.0000  0.0000  0.0000  0.0000  0.0000 </r>
       </set>
       <set comment="band 5">
        <r>  0.0000  0.0000  0.0817  0.2477  0.0000  0.0000  0.0000  0.0000  0.0000 </r>
       </set>
       <set comment="band 6">
        <r>  0.3065  0.0000  0.0000  0.0000  0.0000  0.0000  0.0000  0.0000  0.0000 </r>
       </set>
       <set comment="band 7">
        <r>  0.0000  0.0000  0.0000  0.0000  0.0000  0.0000  0.0000  0.0000  0.0000 </r>
       </set>
       <set comment="band 8">
        <r>  0.0000  0.0000  0.0000  0.0000  0.0000  0.0000  0.0000  0.0000  0.0000 </r>
       </set>
       <set comment="band 9">
        <r>  0.0000  0.0000  0.0000  0.0000  0.0000  0.0000  0.0000  0.0000  0.0000 </r>
       </set>
       <set comment="band 10">
        <r>  0.0000  0.0000  0.0000  0.0000  0.0000  0.0000  0.0000  0.0000  0.0000 </r>
       </set>
       <set comment="band 11">
        <r>  0.0000  0.1721  0.0317  0.0775  0.0000  0.0000  0.0000  0.0000  0.0000 </r>
       </set>
       <set comment="band 12">
        <r>  0.0000  0.0154  0.1090  0.1569  0.0000  0.0000  0.0000  0.0000  0.0000 </r>
       </set>
       <set comment="band 13">
        <r>  0.0000  0.0708  0.1062  0.0354  0.0000  0.0000  0.0000  0.0000  0.0000 </r>
       </set>
       <set comment="band 14">
        <r>  0.0170  0.0000  0.0000  0.0000  0.0000  0.0000  0.0000  0.0000  0.0000 </r>
       </set>
       <set comment="band 15">
        <r>  0.0000  0.0000  0.0000  0.0000  0.0000  0.0000  0.0000  0.0000  0.0000 </r>
       </set>
       <set comment="band 16">
        <r>  0.0000  0.0000  0.0000  0.0000  0.0000  0.0000  0.0000  0.0000  0.0000 </r>
       </set>
       <set comment="band 17">
        <r>  0.0000  0.0000  0.0000  0.0000  0.0000  0.0000  0.0000  0.0000  0.0000 </r>
       </set>
       <set comment="band 18">
        <r>  0.0000  0.0893  0.0338  0.0109  0.0000  0.0000  0.0000  0.0000  0.0000 </r>
       </set>
       <set comment="band 19">
        <r>  0.0000  0.0000  0.0332  0.1008  0.0000  0.0000  0.0000  0.0000  0.0000 </r>
       </set>
       <set comment="band 20">
        <r>  0.0002  0.2742  0.4053  0.1348  0.0000  0.0000  0.0000  0.0000  0.0000 </r>
       </set>
      </set>
     </set>
    </set>
   </array>
  </projected>
 </calculation>
 <structure name="finalpos" >
  <crystal>
   <varray name="basis" >
    <v>       2.49077000      -0.00000000       1.43804700 </v>
    <v>       0.83025700       2.34832100       1.43804700 </v>
    <v>      -0.00000000      -0.00000000       2.87609400 </v>
   </varray>
   <i name="volume">     16.82264050 </i>
   <varray name="rec_basis" >
    <v>       0.40148227      -0.14194544       0.00000000 </v>
    <v>       0.00000000       0.42583616       0.00000000 </v>
    <v>      -0.20074114      -0.14194536       0.34769378 </v>
   </varray>
  </crystal>
  <varray name="positions" >
   <v>       0.00000000       0.00000000       0.00000000 </v>
  </varray>
 </structure>
</modeling>
